9
Lattice="3.0813963413 0.0 0.0 -1.5406981707 2.6685675107 0.0 0.0 0.0 14.4413099289" Properties=species:S:1:pos:R:3:magmoms:R:1:forces:R:3 energy=-72.82724877934912 free_energy=-72.8298639412228 dipole="7.634370403612375e-07 1.3047533889115757e-06 -1.5300663838490657e-06" magmom=0.0 pbc="T T T"
Ti       0.00000000       0.00000000       3.54879515       0.00000000       0.00000000       0.00000000       0.00533282
Ti      -0.00000000      -0.00000000      10.89251478       0.00000000       0.00000000       0.00000000      -0.00533282
Ti       1.54069822       0.88952253       8.36255618       0.00000000       0.00000000       0.00000000       0.00510965
Ti       1.54069822       0.88952253       1.26498816       0.00000000      -0.00000000       0.00000000      -0.00444171
Ti       0.00000000       1.77904506      13.17632210       0.00000000      -0.00000000       0.00000000       0.00444171
Ti      -0.00000000       1.77904506       6.07875332       0.00000000       0.00000000       0.00000000      -0.00510965
C       -0.00000000       0.00000000       7.22065496       0.00000000       0.00000000       0.00000000       0.00000000
C        1.54069822       0.88952253      12.03442626       0.00000000       0.00000000      -0.00000000      -0.00020035
C        0.00000000       1.77904506       2.40688346       0.00000000      -0.00000000       0.00000000       0.00020035
