
  ___ ___ ___ _ _ _  
 |   |   |_  | | | | 
 | | | | | . | | | | 
 |__ |  _|___|_____|  24.6.0
 |___|_|             

User:   intvengiel@DESKTOP-CUQAD65
Date:   Fri Jan 31 08:10:18 2025
Arch:   x86_64
Pid:    2549536
CWD:    /home/intvengiel/workshop-physics/temporary
Python: 3.12.8
gpaw:   /home/intvengiel/miniconda3/envs/gpaw-env/lib/python3.12/site-packages/gpaw
_gpaw:  /home/intvengiel/miniconda3/envs/gpaw-env/lib/python3.12/site-packages/
        _gpaw.cpython-312-x86_64-linux-gnu.so
ase:    /home/intvengiel/miniconda3/envs/gpaw-env/lib/python3.12/site-packages/ase (version 3.24.0)
numpy:  /home/intvengiel/miniconda3/envs/gpaw-env/lib/python3.12/site-packages/numpy (version 1.26.4)
scipy:  /home/intvengiel/miniconda3/envs/gpaw-env/lib/python3.12/site-packages/scipy (version 1.15.1)
libxc:  6.2.2
units:  Angstrom and eV
cores: 1
OpenMP: True
OMP_NUM_THREADS: 1

Input parameters:
  kpts: [10 10 10]
  mode: {ecut: 800.0,
         name: pw}
  occupations: {fixmagmom: False,
                name: fermi-dirac,
                width: 0.01}
  setups: {Ti: :d,1.5}
  xc: PBE

System changes: positions, numbers, cell, pbc, initial_charges, initial_magmoms 

Initialize ...

species:
  Ti:
    name: Titanium
    id: d282db07e62ae71292040bf25b25ccdd
    Z: 22.0
    valence: 12
    core: 10
    charge: 0.0
    Hubbard: {U: 1.5,  # eV
              l: 2,
              scale: True}
    file: /home/intvengiel/miniconda3/envs/gpaw-env/share/gpaw/Ti.PBE.gz
    compensation charges: {type: gauss,
                           rc: 0.38,
                           lmax: 2}
    cutoffs: {filter: 2.23,
              core: 1.02}
    projectors:
      #              energy  rcut
      - 3s(2.00)   -62.623   1.270
      - 4s(2.00)    -4.466   1.270
      - 3p(6.00)   -38.862   1.058
      - 4p(0.00)    -1.466   1.058
      - 3d(2.00)    -4.258   1.058
      -  d          22.953   1.058
  
    # Using partial waves for Ti as LCAO basis

Reference energy: -46448.028563  # eV

Spin-paired calculation

Convergence criteria:
 Maximum [total energy] change in last 3 cyles: 0.0005 eV / valence electron
 Maximum integral of absolute [dens]ity change: 0.0001 electrons / valence electron
 Maximum integral of absolute [eigenst]ate change: 4e-08 eV^2 / valence electron
 Maximum number of scf [iter]ations: 333
 (Square brackets indicate name in SCF output, whereas a 'c' in
 the SCF output indicates the quantity has converged.)

Symmetries present (total): 12

  ( 1  1  0)  ( 1  1  0)  ( 1  0  0)  ( 1  0  0)  ( 0  1  0)  ( 0  1  0)
  ( 0 -1  0)  ( 0 -1  0)  ( 0  1  0)  ( 0  1  0)  (-1 -1  0)  (-1 -1  0)
  ( 0  0  1)  ( 0  0 -1)  ( 0  0  1)  ( 0  0 -1)  ( 0  0  1)  ( 0  0 -1)

  ( 0 -1  0)  ( 0 -1  0)  (-1  0  0)  (-1  0  0)  (-1 -1  0)  (-1 -1  0)
  (-1  0  0)  (-1  0  0)  ( 1  1  0)  ( 1  1  0)  ( 1  0  0)  ( 1  0  0)
  ( 0  0  1)  ( 0  0 -1)  ( 0  0  1)  ( 0  0 -1)  ( 0  0  1)  ( 0  0 -1)
Note: your k-points are not as symmetric as your crystal!

1000 k-points: 10 x 10 x 10 Monkhorst-Pack grid
150 k-points in the irreducible part of the Brillouin zone
       k-points in crystal coordinates                weights
   0:     0.05000000   -0.05000000    0.05000000          4/1000
   1:     0.05000000   -0.05000000    0.15000000          4/1000
   2:     0.05000000   -0.05000000    0.25000000          4/1000
   3:     0.05000000   -0.05000000    0.35000000          4/1000
   4:     0.05000000   -0.05000000    0.45000000          4/1000
   5:     0.05000000    0.05000000    0.05000000          4/1000
   6:     0.05000000    0.05000000    0.15000000          4/1000
   7:     0.05000000    0.05000000    0.25000000          4/1000
   8:     0.05000000    0.05000000    0.35000000          4/1000
   9:     0.05000000    0.05000000    0.45000000          4/1000
          ...
 149:     0.45000000    0.45000000    0.45000000          4/1000

Wave functions: Plane wave expansion
  Cutoff energy: 800.000 eV
  Number of coefficients (min, max): 1796, 1830
  Pulay-stress correction: 0.000000 eV/Ang^3 (de/decut=0.000000)
  Using FFTW library
  ScaLapack parameters: grid=1x1, blocksize=None
  Wavefunction extrapolation:
    Improved wavefunction reuse through dual PAW basis 

Occupation numbers: Fermi-Dirac:
  width: 0.0100  # eV
 

Eigensolver
   Davidson(niter=2) 

Densities:
  Coarse grid: 20*20*32 grid
  Fine grid: 40*40*64 grid
  Total Charge: 0.000000 

Density mixing:
  Method: separate
  Backend: pulay
  Linear mixing parameter: 0.05
  old densities: 5
  Damping of long wavelength oscillations: 50 

Hamiltonian:
  XC and Coulomb potentials evaluated on a 40*40*64 grid
  Using the PBE Exchange-Correlation functional
  External potential:
    NoExternalPotential
 

XC parameters: PBE with 2 nearest neighbor stencil

Memory estimate:
  Process memory now: 164.42 MiB
  Calculator: 124.82 MiB
    Density: 5.43 MiB
      Arrays: 2.54 MiB
      Localized functions: 1.92 MiB
      Mixer: 0.98 MiB
    Hamiltonian: 1.70 MiB
      Arrays: 1.66 MiB
      XC: 0.00 MiB
      Poisson: 0.00 MiB
      vbar: 0.04 MiB
    Wavefunctions: 117.69 MiB
      Arrays psit_nG: 79.58 MiB
      Eigensolver: 0.73 MiB
      Projections: 1.57 MiB
      Projectors: 31.14 MiB
      PW-descriptor: 4.68 MiB

Total number of cores used: 1

Number of atoms: 2
Number of atomic orbitals: 26
Number of bands in calculation: 19
Number of valence electrons: 24
Bands to converge: occupied

... initialized

Initializing position-dependent things.

Density initialized from atomic densities
Creating initial wave functions:
  19 bands from LCAO basis set

                  
                  
                  
                  
         Ti       
                  
                  
                  
       Ti         
                  
                  
                  
                  

Positions:
   0 Ti     0.000000    0.000000    0.000000    ( 0.0000,  0.0000,  0.0000)
   1 Ti     0.000000    1.703183    2.342300    ( 0.0000,  0.0000,  0.0000)

Unit cell:
           periodic     x           y           z      points  spacing
  1. axis:    yes    2.950000    0.000000    0.000000    20     0.1277
  2. axis:    yes   -1.475000    2.554775    0.000000    20     0.1277
  3. axis:    yes    0.000000    0.000000    4.684600    32     0.1464

  Lengths:   2.950000   2.950000   4.684600
  Angles:   90.000000  90.000000 120.000000

Effective grid spacing dv^(1/3) = 0.1402

     iter     time        total  log10-change:
                         energy   eigst   dens
iter:   1 08:10:33   -11.680302
iter:   2 08:10:36   -11.554706   -1.24  -1.27
iter:   3 08:10:39   -13.443073   +0.53  -1.29
iter:   4 08:10:41   -12.093326   -1.07  -1.20
iter:   5 08:10:44   -12.557553   -1.21  -1.36
iter:   6 08:10:47   -10.983757   -0.23  -1.28
iter:   7 08:10:50   -11.036044   -0.46  -1.81
iter:   8 08:10:53   -11.080329   -1.24  -2.12
iter:   9 08:10:56   -11.066524   -2.13  -1.93
iter:  10 08:10:58   -10.997361   -1.82  -1.92
iter:  11 08:11:01   -10.996542   -2.74  -2.25
iter:  12 08:11:04   -10.995912c  -3.51  -2.31
iter:  13 08:11:07   -10.993044c  -3.43  -2.33
iter:  14 08:11:10   -10.993730c  -4.64  -2.45
iter:  15 08:11:13   -10.990450c  -3.38  -2.44
iter:  16 08:11:16   -10.997057c  -3.12  -2.49
iter:  17 08:11:19   -10.987717c  -2.13  -2.36
iter:  18 08:11:22   -10.987889c  -3.73  -2.94
iter:  19 08:11:24   -10.987907c  -4.64  -3.32
iter:  20 08:11:27   -10.987887c  -4.24  -3.28
iter:  21 08:11:30   -10.987949c  -4.80  -3.37
iter:  22 08:11:33   -10.987939c  -4.90  -3.43
iter:  23 08:11:36   -10.987944c  -5.30  -3.74
iter:  24 08:11:38   -10.987955c  -4.60  -3.80
iter:  25 08:11:41   -10.987944c  -6.27  -3.65
iter:  26 08:11:44   -10.987938c  -5.36  -3.88
iter:  27 08:11:47   -10.987938c  -6.93  -4.37c
iter:  28 08:11:49   -10.987940c  -6.43  -4.37c
iter:  29 08:11:52   -10.987939c  -6.45  -4.35c
iter:  30 08:11:55   -10.987939c  -7.96c -4.61c

Converged after 30 iterations.

Dipole moment: (-2.384858, 1.376898, 0.000000) |e|*Ang

Energy contributions relative to reference atoms: (reference = -46448.028563)

Kinetic:         +9.290295
Potential:      -10.391259
External:        +0.000000
XC:             -10.028497
Entropy (-ST):   -0.000415
Local:           +0.141729
SIC:             +0.000000
--------------------------
Free energy:    -10.988146
Extrapolated:   -10.987939

Showing only first 2 kpts
 Kpt  Band  Eigenvalues  Occupancy
  0    10      8.87978    0.00000
  0    11      9.18510    0.00000
  0    12      9.40700    0.00000
  0    13      9.55011    0.00000

  1    10      8.66957    0.00016
  1    11      9.15944    0.00000
  1    12      9.34203    0.00000
  1    13      9.40682    0.00000


Fermi level: 8.57510

No gap
No difference between direct/indirect transitions

Forces in eV/Ang:
  0 Ti    0.00000    0.00000    0.00000
  1 Ti   -0.00000    0.00000    0.00000

System changes: cell, numbers, positions 

Initialize ...

species:
  Ti:
    name: Titanium
    id: d282db07e62ae71292040bf25b25ccdd
    Z: 22.0
    valence: 12
    core: 10
    charge: 0.0
    Hubbard: {U: 1.5,  # eV
              l: 2,
              scale: True}
    file: /home/intvengiel/miniconda3/envs/gpaw-env/share/gpaw/Ti.PBE.gz
    compensation charges: {type: gauss,
                           rc: 0.38,
                           lmax: 2}
    cutoffs: {filter: 2.23,
              core: 1.02}
    projectors:
      #              energy  rcut
      - 3s(2.00)   -62.623   1.270
      - 4s(2.00)    -4.466   1.270
      - 3p(6.00)   -38.862   1.058
      - 4p(0.00)    -1.466   1.058
      - 3d(2.00)    -4.258   1.058
      -  d          22.953   1.058
  
    # Using partial waves for Ti as LCAO basis

  C:
    name: Carbon
    id: 4aa54d4b901d75f77cc0ea3eec22967b
    Z: 6.0
    valence: 4
    core: 2
    charge: 0.0
    file: /home/intvengiel/miniconda3/envs/gpaw-env/share/gpaw/C.PBE.gz
    compensation charges: {type: gauss,
                           rc: 0.20,
                           lmax: 2}
    cutoffs: {filter: 1.14,
              core: 1.14}
    projectors:
      #              energy  rcut
      - 2s(2.00)   -13.751   0.635
      - 2p(2.00)    -5.284   0.635
      -  s          13.461   0.635
      -  p          21.927   0.635
      -  d           0.000   0.635
  
    # Using partial waves for C as LCAO basis

Reference energy: -47475.656679  # eV

Spin-paired calculation

Convergence criteria:
 Maximum [total energy] change in last 3 cyles: 0.0005 eV / valence electron
 Maximum integral of absolute [dens]ity change: 0.0001 electrons / valence electron
 Maximum integral of absolute [eigenst]ate change: 4e-08 eV^2 / valence electron
 Maximum number of scf [iter]ations: 333
 (Square brackets indicate name in SCF output, whereas a 'c' in
 the SCF output indicates the quantity has converged.)

Symmetries present (total): 6

  ( 1  1  0)  ( 1  0  0)  ( 0  1  0)  ( 0 -1  0)  (-1  0  0)  (-1 -1  0)
  ( 0 -1  0)  ( 0  1  0)  (-1 -1  0)  (-1  0  0)  ( 1  1  0)  ( 1  0  0)
  ( 0  0  1)  ( 0  0  1)  ( 0  0  1)  ( 0  0  1)  ( 0  0  1)  ( 0  0  1)
Note: your k-points are not as symmetric as your crystal!

1000 k-points: 10 x 10 x 10 Monkhorst-Pack grid
275 k-points in the irreducible part of the Brillouin zone
       k-points in crystal coordinates                weights
   0:     0.05000000   -0.05000000   -0.45000000          2/1000
   1:     0.05000000   -0.05000000   -0.35000000          2/1000
   2:     0.05000000   -0.05000000   -0.25000000          2/1000
   3:     0.05000000   -0.05000000   -0.15000000          2/1000
   4:     0.05000000   -0.05000000   -0.05000000          2/1000
   5:     0.05000000   -0.05000000    0.05000000          2/1000
   6:     0.05000000   -0.05000000    0.15000000          2/1000
   7:     0.05000000   -0.05000000    0.25000000          2/1000
   8:     0.05000000   -0.05000000    0.35000000          2/1000
   9:     0.05000000   -0.05000000    0.45000000          2/1000
          ...
 274:     0.45000000    0.45000000    0.45000000          4/1000

Wave functions: Plane wave expansion
  Cutoff energy: 800.000 eV
  Number of coefficients (min, max): 2011, 2062
  Pulay-stress correction: 0.000000 eV/Ang^3 (de/decut=0.000000)
  Using FFTW library
  ScaLapack parameters: grid=1x1, blocksize=None
  Wavefunction extrapolation:
    Improved wavefunction reuse through dual PAW basis 

Occupation numbers: Fermi-Dirac:
  width: 0.0100  # eV
 

Eigensolver
   Davidson(niter=2) 

Densities:
  Coarse grid: 21*21*32 grid
  Fine grid: 42*42*64 grid
  Total Charge: 0.000000 

Density mixing:
  Method: separate
  Backend: pulay
  Linear mixing parameter: 0.05
  old densities: 5
  Damping of long wavelength oscillations: 50 

Hamiltonian:
  XC and Coulomb potentials evaluated on a 42*42*64 grid
  Using the PBE Exchange-Correlation functional
  External potential:
    NoExternalPotential
 

XC parameters: PBE with 2 nearest neighbor stencil

Memory estimate:
  Process memory now: 325.69 MiB
  Calculator: 289.90 MiB
    Density: 6.57 MiB
      Arrays: 2.80 MiB
      Localized functions: 2.69 MiB
      Mixer: 1.08 MiB
    Hamiltonian: 1.90 MiB
      Arrays: 1.83 MiB
      XC: 0.00 MiB
      Poisson: 0.00 MiB
      vbar: 0.07 MiB
    Wavefunctions: 281.43 MiB
      Arrays psit_nG: 181.70 MiB
      Eigensolver: 0.89 MiB
      Projections: 4.32 MiB
      Projectors: 85.34 MiB
      PW-descriptor: 9.19 MiB

Total number of cores used: 1

Number of atoms: 3
Number of atomic orbitals: 30
Number of bands in calculation: 21
Number of valence electrons: 28
Bands to converge: occupied

... initialized

Initializing position-dependent things.

Density initialized from atomic densities
Creating initial wave functions:
  21 bands from LCAO basis set

                      
                      
                      
                      
                      
        Ti   C        
                      
                      
           Ti         
                      
                      
                      
                      

Positions:
   0 Ti     0.000000   -0.000000    3.575948    ( 0.0000,  0.0000,  0.0000)
   1 Ti     1.540698   -0.889523    1.237822    ( 0.0000,  0.0000,  0.0000)
   2 C      1.540698    0.889523    2.406885    ( 0.0000,  0.0000,  0.0000)

Unit cell:
           periodic     x           y           z      points  spacing
  1. axis:    yes    1.540698   -2.668568    0.000000    21     0.1271
  2. axis:    yes    1.540698    2.668568    0.000000    21     0.1271
  3. axis:    yes    0.000000    0.000000    4.813770    32     0.1504

  Lengths:   3.081396   3.081396   4.813770
  Angles:   90.000000  90.000000 120.000000

Effective grid spacing dv^(1/3) = 0.1410

     iter     time        total  log10-change:
                         energy   eigst   dens
iter:   1 08:12:28   -25.873095
iter:   2 08:12:39   -24.555447   -0.80  -1.04
iter:   3 08:12:50   -21.881669   +0.43  -1.10
iter:   4 08:13:00   -22.056853   -0.85  -1.52
iter:   5 08:13:10   -22.373378   -1.12  -1.50
iter:   6 08:13:21   -22.104338   -0.29  -1.47
iter:   7 08:13:32   -22.160128   -0.78  -2.01
iter:   8 08:13:42   -22.072874   -1.90  -1.94
iter:   9 08:13:52   -22.064987   -2.46  -2.12
iter:  10 08:14:03   -22.049393   -2.33  -2.17
iter:  11 08:14:13   -22.047115   -2.15  -2.45
iter:  12 08:14:24   -22.048853c  -2.43  -3.04
iter:  13 08:14:34   -22.048276c  -3.04  -2.98
iter:  14 08:14:45   -22.047722c  -3.71  -2.93
iter:  15 08:14:55   -22.047781c  -3.94  -3.32
iter:  16 08:15:06   -22.047714c  -5.02  -3.36
iter:  17 08:15:16   -22.047932c  -3.74  -3.44
iter:  18 08:15:27   -22.047815c  -5.10  -3.28
iter:  19 08:15:37   -22.047697c  -4.21  -3.39
iter:  20 08:15:48   -22.047733c  -4.15  -3.75
iter:  21 08:15:58   -22.047711c  -5.18  -3.59
iter:  22 08:16:09   -22.047711c  -6.38  -4.17c
iter:  23 08:16:19   -22.047711c  -5.97  -4.19c
iter:  24 08:16:30   -22.047710c  -6.71  -4.28c
iter:  25 08:16:40   -22.047710c  -6.63  -4.39c
iter:  26 08:16:50   -22.047713c  -5.57  -4.42c
iter:  27 08:17:01   -22.047710c  -5.99  -4.27c
iter:  28 08:17:11   -22.047710c  -6.76  -4.76c
iter:  29 08:17:22   -22.047710c  -6.69  -4.77c
iter:  30 08:17:32   -22.047712c  -6.23  -4.65c
iter:  31 08:17:42   -22.047712c  -6.53  -4.33c
iter:  32 08:17:53   -22.047712c  -7.12  -4.24c
iter:  33 08:18:03   -22.047709c  -5.94  -4.21c
iter:  34 08:18:14   -22.047710c  -6.12  -4.73c
iter:  35 08:18:24   -22.047710c  -6.69  -4.85c
iter:  36 08:18:34   -22.047710c  -6.65  -4.58c
iter:  37 08:18:45   -22.047710c  -7.16  -5.44c
iter:  38 08:18:55   -22.047710c  -7.85c -5.89c

Converged after 38 iterations.

Dipole moment: (-0.000000, -2.140328, -0.000000) |e|*Ang

Energy contributions relative to reference atoms: (reference = -47475.656679)

Kinetic:        +20.781588
Potential:      -23.155588
External:        +0.000000
XC:             -19.882396
Entropy (-ST):   -0.000577
Local:           +0.208974
SIC:             +0.000000
--------------------------
Free energy:    -22.047998
Extrapolated:   -22.047710

Showing only first 2 kpts
 Kpt  Band  Eigenvalues  Occupancy
  0    12      8.11806    2.00000
  0    13      9.12810    0.00000
  0    14      9.70924    0.00000
  0    15      9.78429    0.00000

  1    12      7.82354    2.00000
  1    13      9.36015    0.00000
  1    14      9.79274    0.00000
  1    15      9.83421    0.00000


Fermi level: 8.88263

No gap
No difference between direct/indirect transitions

Forces in eV/Ang:
  0 Ti    0.00000    0.00000   -0.21080
  1 Ti   -0.00000    0.00000    0.21080
  2 C    -0.00000   -0.00000    0.00000

System changes: positions 

Initializing position-dependent things.

Density initialized from wave functions
                      
                      
                      
                      
                      
        Ti   C        
                      
                      
           Ti         
                      
                      
                      
                      

Positions:
   0 Ti     0.000000    0.000000    3.572936    ( 0.0000,  0.0000,  0.0000)
   1 Ti     1.540698   -0.889523    1.240834    ( 0.0000,  0.0000,  0.0000)
   2 C      1.540698    0.889523    2.406885    ( 0.0000,  0.0000,  0.0000)

Unit cell:
           periodic     x           y           z      points  spacing
  1. axis:    yes    1.540698   -2.668568    0.000000    21     0.1271
  2. axis:    yes    1.540698    2.668568    0.000000    21     0.1271
  3. axis:    yes    0.000000    0.000000    4.813770    32     0.1504

  Lengths:   3.081396   3.081396   4.813770
  Angles:   90.000000  90.000000 120.000000

Effective grid spacing dv^(1/3) = 0.1410

     iter     time        total  log10-change:
                         energy   eigst   dens
iter:   1 08:19:07   -22.049172   -3.19
iter:   2 08:19:17   -22.049077   -4.28  -3.04
iter:   3 08:19:28   -22.049186c  -2.98  -3.08
iter:   4 08:19:39   -22.048813c  -4.51  -3.10
iter:   5 08:19:49   -22.048817c  -4.60  -3.64
iter:   6 08:20:00   -22.048813c  -4.50  -3.61
iter:   7 08:20:10   -22.048809c  -5.39  -3.83
iter:   8 08:20:21   -22.048804c  -5.11  -3.89
iter:   9 08:20:32   -22.048802c  -5.85  -4.14c
iter:  10 08:20:42   -22.048802c  -6.51  -4.57c
iter:  11 08:20:53   -22.048802c  -6.78  -4.52c
iter:  12 08:21:03   -22.048802c  -7.04  -4.46c
iter:  13 08:21:14   -22.048802c  -8.16c -4.40c

Converged after 13 iterations.

Dipole moment: (-0.000000, -2.141218, 0.000000) |e|*Ang

Energy contributions relative to reference atoms: (reference = -47475.656679)

Kinetic:        +20.991751
Potential:      -23.324954
External:        +0.000000
XC:             -19.924933
Entropy (-ST):   -0.000565
Local:           +0.209616
SIC:             +0.000000
--------------------------
Free energy:    -22.049085
Extrapolated:   -22.048802

Showing only first 2 kpts
 Kpt  Band  Eigenvalues  Occupancy
  0    12      8.10579    2.00000
  0    13      9.14492    0.00000
  0    14      9.70699    0.00000
  0    15      9.78154    0.00000

  1    12      7.81710    2.00000
  1    13      9.37132    0.00000
  1    14      9.79035    0.00000
  1    15      9.83090    0.00000


Fermi level: 8.88423

No gap
No difference between direct/indirect transitions

Forces in eV/Ang:
  0 Ti    0.00000   -0.00000   -0.14509
  1 Ti    0.00000    0.00000    0.14509
  2 C    -0.00000    0.00000   -0.00000

System changes: positions 

Initializing position-dependent things.

Density initialized from wave functions
                      
                      
                      
                      
                      
        Ti   C        
                      
                      
           Ti         
                      
                      
                      
                      

Positions:
   0 Ti     0.000000   -0.000000    3.566287    ( 0.0000,  0.0000,  0.0000)
   1 Ti     1.540698   -0.889523    1.247483    ( 0.0000,  0.0000,  0.0000)
   2 C      1.540698    0.889523    2.406885    ( 0.0000,  0.0000,  0.0000)

Unit cell:
           periodic     x           y           z      points  spacing
  1. axis:    yes    1.540698   -2.668568    0.000000    21     0.1271
  2. axis:    yes    1.540698    2.668568    0.000000    21     0.1271
  3. axis:    yes    0.000000    0.000000    4.813770    32     0.1504

  Lengths:   3.081396   3.081396   4.813770
  Angles:   90.000000  90.000000 120.000000

Effective grid spacing dv^(1/3) = 0.1410

     iter     time        total  log10-change:
                         energy   eigst   dens
iter:   1 08:21:26   -22.051857   -2.46
iter:   2 08:21:37   -22.051358   -3.55  -2.68
iter:   3 08:21:48   -22.052272c  -2.21  -2.72
iter:   4 08:21:58   -22.049967c  -3.74  -2.70
iter:   5 08:22:09   -22.049956c  -3.91  -3.27
iter:   6 08:22:19   -22.049958c  -3.73  -3.28
iter:   7 08:22:29   -22.049943c  -4.57  -3.49
iter:   8 08:22:38   -22.049905c  -4.63  -3.52
iter:   9 08:22:48   -22.049898c  -4.84  -3.75
iter:  10 08:22:58   -22.049899c  -5.54  -4.25c
iter:  11 08:23:08   -22.049900c  -5.95  -4.19c
iter:  12 08:23:18   -22.049896c  -5.62  -4.12c
iter:  13 08:23:28   -22.049896c  -6.72  -4.89c
iter:  14 08:23:38   -22.049896c  -7.34  -4.86c
iter:  15 08:23:48   -22.049896c  -7.44c -4.87c

Converged after 15 iterations.

Dipole moment: (-0.000000, -2.143261, 0.000000) |e|*Ang

Energy contributions relative to reference atoms: (reference = -47475.656679)

Kinetic:        +21.373539
Potential:      -23.617818
External:        +0.000000
XC:             -20.013102
Entropy (-ST):   -0.000551
Local:           +0.207759
SIC:             +0.000000
--------------------------
Free energy:    -22.050171
Extrapolated:   -22.049896

Showing only first 2 kpts
 Kpt  Band  Eigenvalues  Occupancy
  0    12      8.07783    2.00000
  0    13      9.18149    0.00000
  0    14      9.69999    0.00000
  0    15      9.77338    0.00000

  1    12      7.80160    2.00000
  1    13      9.39578    0.00000
  1    14      9.78299    0.00000
  1    15      9.82147    0.00000


Fermi level: 8.88670

No gap
No difference between direct/indirect transitions

Forces in eV/Ang:
  0 Ti    0.00000    0.00000   -0.01495
  1 Ti   -0.00000    0.00000    0.01495
  2 C     0.00000   -0.00000    0.00000

System changes: positions 

Initializing position-dependent things.

Density initialized from wave functions
                      
                      
                      
                      
                      
        Ti   C        
                      
                      
           Ti         
                      
                      
                      
                      

Positions:
   0 Ti     0.000000   -0.000000    3.565523    ( 0.0000,  0.0000,  0.0000)
   1 Ti     1.540698   -0.889523    1.248247    ( 0.0000,  0.0000,  0.0000)
   2 C      1.540698    0.889523    2.406885    ( 0.0000,  0.0000,  0.0000)

Unit cell:
           periodic     x           y           z      points  spacing
  1. axis:    yes    1.540698   -2.668568    0.000000    21     0.1271
  2. axis:    yes    1.540698    2.668568    0.000000    21     0.1271
  3. axis:    yes    0.000000    0.000000    4.813770    32     0.1504

  Lengths:   3.081396   3.081396   4.813770
  Angles:   90.000000  90.000000 120.000000

Effective grid spacing dv^(1/3) = 0.1410

     iter     time        total  log10-change:
                         energy   eigst   dens
iter:   1 08:23:59   -22.049930   -4.37
iter:   2 08:24:10   -22.049924   -5.47  -3.63
iter:   3 08:24:21   -22.049929c  -4.17  -3.67
iter:   4 08:24:32   -22.049906c  -5.60  -3.69
iter:   5 08:24:42   -22.049906c  -5.86  -4.26c
iter:   6 08:24:53   -22.049906c  -5.74  -4.21c
iter:   7 08:25:04   -22.049905c  -6.56  -4.44c
iter:   8 08:25:14   -22.049905c  -6.30  -4.50c
iter:   9 08:25:25   -22.049905c  -7.27  -4.76c
iter:  10 08:25:36   -22.049905c  -7.91c -5.19c

Converged after 10 iterations.

Dipole moment: (-0.000000, -2.143425, -0.000000) |e|*Ang

Energy contributions relative to reference atoms: (reference = -47475.656679)

Kinetic:        +21.436814
Potential:      -23.668842
External:        +0.000000
XC:             -20.025629
Entropy (-ST):   -0.000550
Local:           +0.208027
SIC:             +0.000000
--------------------------
Free energy:    -22.050180
Extrapolated:   -22.049905

Showing only first 2 kpts
 Kpt  Band  Eigenvalues  Occupancy
  0    12      8.07483    2.00000
  0    13      9.18608    0.00000
  0    14      9.69954    0.00000
  0    15      9.77280    0.00000

  1    12      7.79998    2.00000
  1    13      9.39903    0.00000
  1    14      9.78250    0.00000
  1    15      9.82074    0.00000


Fermi level: 8.88729

No gap
No difference between direct/indirect transitions

Forces in eV/Ang:
  0 Ti    0.00000   -0.00000    0.00241
  1 Ti    0.00000    0.00000   -0.00241
  2 C     0.00000    0.00000    0.00000

Timing:                                      incl.     excl.
-------------------------------------------------------------------
Density initialized from wave functions:     1.588     1.583   0.2% |
 Symmetrize density:                         0.004     0.004   0.0% |
Forces:                                      2.268     2.268   0.2% |
Hamiltonian:                                 0.469     0.001   0.0% |
 Atomic:                                     0.288     0.007   0.0% |
  XC Correction:                             0.281     0.281   0.0% |
 Calculate atomic Hamiltonians:              0.014     0.014   0.0% |
 Communicate:                                0.000     0.000   0.0% |
 Initialize Hamiltonian:                     0.000     0.000   0.0% |
 Poisson:                                    0.001     0.001   0.0% |
 XC 3D grid:                                 0.165     0.165   0.0% |
LCAO initialization:                        30.309     0.088   0.0% |
 LCAO eigensolver:                           1.486     0.007   0.0% |
  Calculate projections:                     0.009     0.009   0.0% |
  DenseAtomicCorrection:                     0.031     0.031   0.0% |
  Distribute overlap matrix:                 0.004     0.004   0.0% |
  Orbital Layouts:                           0.218     0.218   0.0% |
  Potential matrix:                          1.030     1.030   0.1% |
  Sum over cells:                            0.186     0.186   0.0% |
 LCAO to grid:                              27.442    27.442   3.0% ||
 Set positions (LCAO WFS):                   1.293     0.182   0.0% |
  Basic WFS set positions:                   0.001     0.001   0.0% |
  Basis functions set positions:             0.000     0.000   0.0% |
  P tci:                                     0.518     0.518   0.1% |
  ST tci:                                    0.581     0.581   0.1% |
  mktci:                                     0.012     0.012   0.0% |
PWDescriptor:                                0.269     0.269   0.0% |
Redistribute:                                0.076     0.076   0.0% |
SCF-cycle:                                 878.112     2.963   0.3% |
 Davidson:                                 820.564   107.778  11.7% |----|
  Apply H:                                 141.083   136.959  14.9% |-----|
   HMM T:                                    4.124     4.124   0.4% |
  Subspace diag:                           174.121     1.406   0.2% |
   calc_h_matrix:                          151.694     9.880   1.1% |
    Apply H:                               141.814   136.989  14.9% |-----|
     HMM T:                                  4.825     4.825   0.5% |
   diagonalize:                              5.134     5.134   0.6% |
   rotate_psi:                              15.888    15.888   1.7% ||
  calc. matrices:                          336.843    54.572   5.9% |-|
   Apply H:                                282.271   273.970  29.8% |-----------|
    HMM T:                                   8.301     8.301   0.9% |
  diagonalize:                              36.668    36.668   4.0% |-|
  rotate_psi:                               24.071    24.071   2.6% ||
 Density:                                   45.255     0.001   0.0% |
  Atomic density matrices:                   0.538     0.538   0.1% |
  Mix:                                       1.398     1.398   0.2% |
  Multipole moments:                         0.006     0.006   0.0% |
  Pseudo density:                           43.312    43.145   4.7% |-|
   Symmetrize density:                       0.167     0.167   0.0% |
 Hamiltonian:                                7.648     0.038   0.0% |
  Atomic:                                    5.613     0.144   0.0% |
   XC Correction:                            5.469     5.469   0.6% |
  Calculate atomic Hamiltonians:             0.230     0.230   0.0% |
  Communicate:                               0.001     0.001   0.0% |
  Poisson:                                   0.029     0.029   0.0% |
  XC 3D grid:                                1.738     1.738   0.2% |
 Orthonormalize:                             1.682     0.065   0.0% |
  calc_s_matrix:                             0.358     0.358   0.0% |
  inverse-cholesky:                          0.104     0.104   0.0% |
  projections:                               0.820     0.820   0.1% |
  rotate_psi_s:                              0.335     0.335   0.0% |
Set symmetry:                                0.039     0.039   0.0% |
Other:                                       5.567     5.567   0.6% |
-------------------------------------------------------------------
Total:                                               918.697 100.0%

Date: Fri Jan 31 08:25:37 2025
