
  ___ ___ ___ _ _ _  
 |   |   |_  | | | | 
 | | | | | . | | | | 
 |__ |  _|___|_____|  24.6.0
 |___|_|             

User:   intvengiel@DESKTOP-CUQAD65
Date:   Wed Jan 29 15:28:50 2025
Arch:   x86_64
Pid:    2014925
CWD:    /home/intvengiel/workshop-physics
Python: 3.12.8
gpaw:   /home/intvengiel/miniconda3/envs/gpaw-env/lib/python3.12/site-packages/gpaw
_gpaw:  /home/intvengiel/miniconda3/envs/gpaw-env/lib/python3.12/site-packages/
        _gpaw.cpython-312-x86_64-linux-gnu.so
ase:    /home/intvengiel/miniconda3/envs/gpaw-env/lib/python3.12/site-packages/ase (version 3.24.0)
numpy:  /home/intvengiel/miniconda3/envs/gpaw-env/lib/python3.12/site-packages/numpy (version 1.26.4)
scipy:  /home/intvengiel/miniconda3/envs/gpaw-env/lib/python3.12/site-packages/scipy (version 1.15.1)
libxc:  6.2.2
units:  Angstrom and eV
cores: 1
OpenMP: True
OMP_NUM_THREADS: 1

Input parameters:
  mode: {ecut: 700.0,
         name: pw}
  occupations: {fixmagmom: False,
                name: fermi-dirac,
                width: 0.01}
  xc: PBE

System changes: positions, numbers, cell, pbc, initial_charges, initial_magmoms 

Initialize ...

species:
  C:
    name: Carbon
    id: 4aa54d4b901d75f77cc0ea3eec22967b
    Z: 6.0
    valence: 4
    core: 2
    charge: 0.0
    file: /home/intvengiel/miniconda3/envs/gpaw-env/share/gpaw/C.PBE.gz
    compensation charges: {type: gauss,
                           rc: 0.20,
                           lmax: 2}
    cutoffs: {filter: 1.14,
              core: 1.14}
    projectors:
      #              energy  rcut
      - 2s(2.00)   -13.751   0.635
      - 2p(2.00)    -5.284   0.635
      -  s          13.461   0.635
      -  p          21.927   0.635
      -  d           0.000   0.635
  
    # Using partial waves for C as LCAO basis

  O:
    name: Oxygen
    id: 32ecd46bf208036f09c70b0ec9a88b78
    Z: 8.0
    valence: 6
    core: 2
    charge: 0.0
    file: /home/intvengiel/miniconda3/envs/gpaw-env/share/gpaw/O.PBE.gz
    compensation charges: {type: gauss,
                           rc: 0.21,
                           lmax: 2}
    cutoffs: {filter: 1.17,
              core: 0.83}
    projectors:
      #              energy  rcut
      - 2s(2.00)   -23.961   0.688
      - 2p(4.00)    -9.029   0.598
      -  s           3.251   0.688
      -  p          18.182   0.598
      -  d           0.000   0.619
  
    # Using partial waves for O as LCAO basis

Reference energy: -5109.332718  # eV

Spin-paired calculation

Convergence criteria:
 Maximum [total energy] change in last 3 cyles: 0.0005 eV / valence electron
 Maximum integral of absolute [dens]ity change: 0.0001 electrons / valence electron
 Maximum integral of absolute [eigenst]ate change: 4e-08 eV^2 / valence electron
 Maximum number of scf [iter]ations: 333
 (Square brackets indicate name in SCF output, whereas a 'c' in
 the SCF output indicates the quantity has converged.)

Symmetries present (total): 4

  ( 1  0  0)  ( 1  0  0)  (-1  0  0)  (-1  0  0)
  ( 0  1  0)  ( 0  1  0)  ( 0 -1  0)  ( 0 -1  0)
  ( 0  0  1)  ( 0  0 -1)  ( 0  0  1)  ( 0  0 -1)

1 k-point (Gamma)
1 k-point in the irreducible part of the Brillouin zone
       k-points in crystal coordinates                weights
   0:     0.00000000    0.00000000    0.00000000          1/1

Wave functions: Plane wave expansion
  Cutoff energy: 700.000 eV
  Number of coefficients: 42115 (reduced to 21058)
  Pulay-stress correction: 0.000000 eV/Ang^3 (de/decut=0.000000)
  Using FFTW library
  ScaLapack parameters: grid=1x1, blocksize=None
  Wavefunction extrapolation:
    Improved wavefunction reuse through dual PAW basis 

Occupation numbers: Fermi-Dirac:
  width: 0.0100  # eV
 

Eigensolver
   Davidson(niter=2) 

Densities:
  Coarse grid: 63*63*63 grid
  Fine grid: 126*126*126 grid
  Total Charge: 0.000000 

Density mixing:
  Method: separate
  Backend: pulay
  Linear mixing parameter: 0.05
  old densities: 5
  Damping of long wavelength oscillations: 50 

Hamiltonian:
  XC and Coulomb potentials evaluated on a 126*126*126 grid
  Using the PBE Exchange-Correlation functional
  External potential:
    NoExternalPotential
 

XC parameters: PBE with 2 nearest neighbor stencil

Memory estimate:
  Process memory now: 383.36 MiB
  Calculator: 175.81 MiB
    Density: 124.49 MiB
      Arrays: 49.60 MiB
      Localized functions: 55.81 MiB
      Mixer: 19.08 MiB
    Hamiltonian: 33.79 MiB
      Arrays: 32.43 MiB
      XC: 0.00 MiB
      Poisson: 0.00 MiB
      vbar: 1.36 MiB
    Wavefunctions: 17.52 MiB
      Arrays psit_nG: 3.86 MiB
      Eigensolver: 5.47 MiB
      Projections: 0.00 MiB
      Projectors: 3.05 MiB
      PW-descriptor: 5.14 MiB

Total number of cores used: 1

Number of atoms: 3
Number of atomic orbitals: 12
Number of bands in calculation: 12
Number of valence electrons: 16
Bands to converge: occupied

... initialized

Initializing position-dependent things.

Density initialized from atomic densities
Creating initial wave functions:
  12 bands from LCAO basis set

       .------------------------.  
      /|                        |  
     / |                        |  
    /  |                        |  
   /   |                        |  
  /    |                        |  
 *     |                        |  
 |     |                        |  
 |     |                        |  
 |     |      O  C O            |  
 |     |                        |  
 |     |                        |  
 |     .------------------------.  
 |    /                        /   
 |   /                        /    
 |  /                        /     
 | /                        /      
 |/                        /       
 *------------------------*        

Positions:
   0 C      5.000000    5.000000    5.000000    ( 0.0000,  0.0000,  0.0000)
   1 O      6.022100    5.567900    5.000000    ( 0.0000,  0.0000,  0.0000)
   2 O      3.977900    4.432100    5.000000    ( 0.0000,  0.0000,  0.0000)

Unit cell:
           periodic     x           y           z      points  spacing
  1. axis:    no    10.000000    0.000000    0.000000    63     0.1587
  2. axis:    no     0.000000   10.000000    0.000000    63     0.1587
  3. axis:    no     0.000000    0.000000   10.000000    63     0.1587

  Lengths:  10.000000  10.000000  10.000000
  Angles:   90.000000  90.000000  90.000000

Effective grid spacing dv^(1/3) = 0.1587

     iter     time        total  log10-change:
                         energy   eigst   dens
iter:   1 15:28:52   -25.099011
iter:   2 15:28:52   -24.768122   -1.25  -0.89
iter:   3 15:28:53   -23.688491   -0.95  -0.93
iter:   4 15:28:54   -23.652148   -2.18  -1.30
iter:   5 15:28:55   -23.648578   -1.13  -1.35
iter:   6 15:28:56   -23.608590   -2.02  -1.68
iter:   7 15:28:57   -23.585216   -2.54  -1.71
iter:   8 15:28:57   -23.562195   -2.15  -1.83
iter:   9 15:28:58   -23.562533   -3.59  -2.77
iter:  10 15:28:59   -23.563214c  -3.81  -2.72
iter:  11 15:29:00   -23.563210c  -4.99  -2.59
iter:  12 15:29:00   -23.563127c  -6.00  -2.59
iter:  13 15:29:01   -23.562732c  -4.78  -2.60
iter:  14 15:29:02   -23.562245c  -4.21  -2.68
iter:  15 15:29:03   -23.562162c  -4.88  -2.88
iter:  16 15:29:03   -23.562155c  -5.83  -2.96
iter:  17 15:29:04   -23.562140c  -6.07  -3.06
iter:  18 15:29:05   -23.562147c  -5.11  -3.11
iter:  19 15:29:06   -23.562146c  -6.39  -3.65
iter:  20 15:29:06   -23.562146c  -7.45c -3.78
iter:  21 15:29:07   -23.562146c  -6.66  -3.84
iter:  22 15:29:08   -23.562146c  -7.48c -3.96
iter:  23 15:29:09   -23.562146c  -6.46  -4.04c
iter:  24 15:29:10   -23.562145c  -6.62  -3.95
iter:  25 15:29:10   -23.562145c  -7.46c -4.49c

Converged after 25 iterations.

Dipole moment: (0.000000, 0.000000, 0.000000) |e|*Ang

Energy contributions relative to reference atoms: (reference = -5109.332718)

Kinetic:        +26.841666
Potential:      -30.512010
External:        +0.000000
XC:             -20.335239
Entropy (-ST):   -0.000000
Local:           +0.443438
SIC:             +0.000000
--------------------------
Free energy:    -23.562145
Extrapolated:   -23.562145

 Band  Eigenvalues  Occupancy
    0    -28.85766    2.00000
    1    -27.84440    2.00000
    2    -13.57330    2.00000
    3    -12.41889    2.00000
    4    -12.41828    2.00000
    5    -12.41775    2.00000
    6     -8.81315    2.00000
    7     -8.81308    2.00000
    8     -0.81526    0.00000
    9     -0.19315    0.00000
   10     -0.19288    0.00000
   11      0.65090    0.00000

Fermi level: -6.56899

Gap: 7.998 eV
Transition (v -> c):
  (s=0, k=0, n=7, [0.00, 0.00, 0.00]) -> (s=0, k=0, n=8, [0.00, 0.00, 0.00])
No difference between direct/indirect transitions

Forces in eV/Ang:
  0 C     0.00000    0.00000    0.00000
  1 O     0.27791    0.15358    0.00000
  2 O    -0.27791   -0.15358    0.00000

System changes: positions 

Initializing position-dependent things.

Density initialized from wave functions
       .------------------------.  
      /|                        |  
     / |                        |  
    /  |                        |  
   /   |                        |  
  /    |                        |  
 *     |                        |  
 |     |                        |  
 |     |                        |  
 |     |      O  C O            |  
 |     |                        |  
 |     |                        |  
 |     .------------------------.  
 |    /                        /   
 |   /                        /    
 |  /                        /     
 | /                        /      
 |/                        /       
 *------------------------*        

Positions:
   0 C      5.000000    5.000000    5.000000    ( 0.0000,  0.0000,  0.0000)
   1 O      6.026070    5.570094    5.000000    ( 0.0000,  0.0000,  0.0000)
   2 O      3.973930    4.429906    5.000000    ( 0.0000,  0.0000,  0.0000)

Unit cell:
           periodic     x           y           z      points  spacing
  1. axis:    no    10.000000    0.000000    0.000000    63     0.1587
  2. axis:    no     0.000000   10.000000    0.000000    63     0.1587
  3. axis:    no     0.000000    0.000000   10.000000    63     0.1587

  Lengths:  10.000000  10.000000  10.000000
  Angles:   90.000000  90.000000  90.000000

Effective grid spacing dv^(1/3) = 0.1587

     iter     time        total  log10-change:
                         energy   eigst   dens
iter:   1 15:29:11   -23.563783   -3.03
iter:   2 15:29:12   -23.563535   -4.84  -2.59
iter:   3 15:29:13   -23.562909c  -3.97  -2.64
iter:   4 15:29:14   -23.562920c  -5.21  -3.13
iter:   5 15:29:14   -23.562873c  -5.09  -3.12
iter:   6 15:29:15   -23.562868c  -5.70  -3.63
iter:   7 15:29:16   -23.562872c  -6.33  -4.05c
iter:   8 15:29:16   -23.562868c  -6.04  -3.71
iter:   9 15:29:17   -23.562868c  -7.96c -4.52c

Converged after 9 iterations.

Dipole moment: (0.000000, 0.000000, 0.000000) |e|*Ang

Energy contributions relative to reference atoms: (reference = -5109.332718)

Kinetic:        +25.700112
Potential:      -29.615176
External:        +0.000000
XC:             -20.089511
Entropy (-ST):   -0.000000
Local:           +0.441706
SIC:             +0.000000
--------------------------
Free energy:    -23.562868
Extrapolated:   -23.562868

 Band  Eigenvalues  Occupancy
    0    -28.80436    2.00000
    1    -27.79056    2.00000
    2    -13.59726    2.00000
    3    -12.41864    2.00000
    4    -12.37770    2.00000
    5    -12.37737    2.00000
    6     -8.80958    2.00000
    7     -8.80952    2.00000
    8     -0.83027    0.00000
    9     -0.27106    0.00000
   10     -0.27070    0.00000
   11      0.64125    0.00000

Fermi level: -6.56899

Gap: 7.979 eV
Transition (v -> c):
  (s=0, k=0, n=7, [0.00, 0.00, 0.00]) -> (s=0, k=0, n=8, [0.00, 0.00, 0.00])
No difference between direct/indirect transitions

Forces in eV/Ang:
  0 C     0.00000    0.00000    0.00000
  1 O    -0.13318   -0.07505    0.00000
  2 O     0.13318    0.07505    0.00000

System changes: positions 

Initializing position-dependent things.

Density initialized from wave functions
       .------------------------.  
      /|                        |  
     / |                        |  
    /  |                        |  
   /   |                        |  
  /    |                        |  
 *     |                        |  
 |     |                        |  
 |     |                        |  
 |     |      O  C O            |  
 |     |                        |  
 |     |                        |  
 |     .------------------------.  
 |    /                        /   
 |   /                        /    
 |  /                        /     
 | /                        /      
 |/                        /       
 *------------------------*        

Positions:
   0 C      5.000000    5.000000    5.000000    ( 0.0000,  0.0000,  0.0000)
   1 O      6.024786    5.569370    5.000000    ( 0.0000,  0.0000,  0.0000)
   2 O      3.975214    4.430630    5.000000    ( 0.0000,  0.0000,  0.0000)

Unit cell:
           periodic     x           y           z      points  spacing
  1. axis:    no    10.000000    0.000000    0.000000    63     0.1587
  2. axis:    no     0.000000   10.000000    0.000000    63     0.1587
  3. axis:    no     0.000000    0.000000   10.000000    63     0.1587

  Lengths:  10.000000  10.000000  10.000000
  Angles:   90.000000  90.000000  90.000000

Effective grid spacing dv^(1/3) = 0.1587

     iter     time        total  log10-change:
                         energy   eigst   dens
iter:   1 15:29:18   -23.563196   -4.02
iter:   2 15:29:19   -23.563170   -5.82  -3.08
iter:   3 15:29:20   -23.563104c  -4.96  -3.13
iter:   4 15:29:21   -23.563105c  -6.26  -3.62
iter:   5 15:29:21   -23.563101c  -6.09  -3.61
iter:   6 15:29:22   -23.563100c  -6.64  -4.08c
iter:   7 15:29:23   -23.563100c  -7.31  -4.53c
iter:   8 15:29:24   -23.563100c  -6.97  -4.20c
iter:   9 15:29:24   -23.563100c  -8.90c -4.97c

Converged after 9 iterations.

Dipole moment: (0.000000, 0.000000, 0.000000) |e|*Ang

Energy contributions relative to reference atoms: (reference = -5109.332718)

Kinetic:        +26.056986
Potential:      -29.895699
External:        +0.000000
XC:             -20.167978
Entropy (-ST):   -0.000000
Local:           +0.443592
SIC:             +0.000000
--------------------------
Free energy:    -23.563100
Extrapolated:   -23.563100

 Band  Eigenvalues  Occupancy
    0    -28.82188    2.00000
    1    -27.80823    2.00000
    2    -13.58970    2.00000
    3    -12.41889    2.00000
    4    -12.39100    2.00000
    5    -12.39066    2.00000
    6     -8.81092    2.00000
    7     -8.81086    2.00000
    8     -0.82525    0.00000
    9     -0.24600    0.00000
   10     -0.24566    0.00000
   11      0.64442    0.00000

Fermi level: -6.56899

Gap: 7.986 eV
Transition (v -> c):
  (s=0, k=0, n=7, [0.00, 0.00, 0.00]) -> (s=0, k=0, n=8, [0.00, 0.00, 0.00])
No difference between direct/indirect transitions

Forces in eV/Ang:
  0 C     0.00000    0.00000    0.00000
  1 O    -0.00247   -0.00237    0.00000
  2 O     0.00247    0.00237    0.00000

Writing to /home/intvengiel/workshop-physics/gas/calculator/PBEU-calculator.gpw (mode='all')

Timing:                                      incl.     excl.
-------------------------------------------------------------------
Density initialized from wave functions:     0.200     0.167   0.5% |
 Symmetrize density:                         0.033     0.033   0.1% |
Forces:                                      0.682     0.682   2.0% ||
Hamiltonian:                                 1.165     0.012   0.0% |
 Atomic:                                     0.072     0.002   0.0% |
  XC Correction:                             0.070     0.070   0.2% |
 Calculate atomic Hamiltonians:              0.081     0.081   0.2% |
 Communicate:                                0.000     0.000   0.0% |
 Initialize Hamiltonian:                     0.000     0.000   0.0% |
 Poisson:                                    0.019     0.019   0.1% |
 XC 3D grid:                                 0.981     0.981   2.8% ||
LCAO initialization:                         0.062     0.015   0.0% |
 LCAO eigensolver:                           0.008     0.000   0.0% |
  Calculate projections:                     0.000     0.000   0.0% |
  DenseAtomicCorrection:                     0.000     0.000   0.0% |
  Distribute overlap matrix:                 0.000     0.000   0.0% |
  Orbital Layouts:                           0.002     0.002   0.0% |
  Potential matrix:                          0.006     0.006   0.0% |
 LCAO to grid:                               0.033     0.033   0.1% |
 Set positions (LCAO WFS):                   0.005     0.000   0.0% |
  Basic WFS set positions:                   0.000     0.000   0.0% |
  Basis functions set positions:             0.000     0.000   0.0% |
  P tci:                                     0.002     0.002   0.0% |
  ST tci:                                    0.000     0.000   0.0% |
  mktci:                                     0.003     0.003   0.0% |
PWDescriptor:                                0.145     0.145   0.4% |
Redistribute:                                0.001     0.001   0.0% |
SCF-cycle:                                  31.335     0.023   0.1% |
 Davidson:                                  10.149     1.304   3.7% ||
  Apply H:                                   2.138     2.096   6.0% |-|
   HMM T:                                    0.043     0.043   0.1% |
  Subspace diag:                             1.998     0.002   0.0% |
   calc_h_matrix:                            1.547     0.045   0.1% |
    Apply H:                                 1.501     1.458   4.2% |-|
     HMM T:                                  0.043     0.043   0.1% |
   diagonalize:                              0.009     0.009   0.0% |
   rotate_psi:                               0.440     0.440   1.3% ||
  calc. matrices:                            4.577     0.272   0.8% |
   Apply H:                                  4.305     4.212  12.0% |----|
    HMM T:                                   0.093     0.093   0.3% |
  diagonalize:                               0.016     0.016   0.0% |
  rotate_psi:                                0.117     0.117   0.3% |
 Density:                                    5.331     0.001   0.0% |
  Atomic density matrices:                   0.017     0.017   0.0% |
  Mix:                                       3.481     3.481  10.0% |---|
  Multipole moments:                         0.003     0.003   0.0% |
  Pseudo density:                            1.828     1.106   3.2% ||
   Symmetrize density:                       0.722     0.722   2.1% ||
 Hamiltonian:                               15.793     0.205   0.6% |
  Atomic:                                    0.988     0.013   0.0% |
   XC Correction:                            0.975     0.975   2.8% ||
  Calculate atomic Hamiltonians:             1.096     1.096   3.1% ||
  Communicate:                               0.000     0.000   0.0% |
  Poisson:                                   0.267     0.267   0.8% |
  XC 3D grid:                               13.237    13.237  37.9% |--------------|
 Orthonormalize:                             0.039     0.000   0.0% |
  calc_s_matrix:                             0.002     0.002   0.0% |
  inverse-cholesky:                          0.001     0.001   0.0% |
  projections:                               0.010     0.010   0.0% |
  rotate_psi_s:                              0.025     0.025   0.1% |
Set symmetry:                                0.001     0.001   0.0% |
Other:                                       1.373     1.373   3.9% |-|
-------------------------------------------------------------------
Total:                                                34.963 100.0%

Memory usage: 712.00 MiB
Date: Wed Jan 29 15:29:25 2025
