
  ___ ___ ___ _ _ _  
 |   |   |_  | | | | 
 | | | | | . | | | | 
 |__ |  _|___|_____|  24.6.0
 |___|_|             

User:   intvengiel@DESKTOP-CUQAD65
Date:   Thu Jan 30 08:28:23 2025
Arch:   x86_64
Pid:    2290544
CWD:    /home/intvengiel/workshop-physics
Python: 3.12.8
gpaw:   /home/intvengiel/miniconda3/envs/gpaw-env/lib/python3.12/site-packages/gpaw
_gpaw:  /home/intvengiel/miniconda3/envs/gpaw-env/lib/python3.12/site-packages/
        _gpaw.cpython-312-x86_64-linux-gnu.so
ase:    /home/intvengiel/miniconda3/envs/gpaw-env/lib/python3.12/site-packages/ase (version 3.24.0)
numpy:  /home/intvengiel/miniconda3/envs/gpaw-env/lib/python3.12/site-packages/numpy (version 1.26.4)
scipy:  /home/intvengiel/miniconda3/envs/gpaw-env/lib/python3.12/site-packages/scipy (version 1.15.1)
libxc:  6.2.2
units:  Angstrom and eV
cores: 1
OpenMP: True
OMP_NUM_THREADS: 1

Input parameters:
  kpts: [5 5 5]
  mode: {ecut: 700.0,
         name: pw}
  occupations: {fixmagmom: False,
                name: fermi-dirac,
                width: 0.1}
  setups: {Ti: :d,1.6}
  xc: PBE

System changes: positions, numbers, cell, pbc, initial_charges, initial_magmoms 

Initialize ...

species:
  Ti:
    name: Titanium
    id: d282db07e62ae71292040bf25b25ccdd
    Z: 22.0
    valence: 12
    core: 10
    charge: 0.0
    Hubbard: {U: 1.6,  # eV
              l: 2,
              scale: True}
    file: /home/intvengiel/miniconda3/envs/gpaw-env/share/gpaw/Ti.PBE.gz
    compensation charges: {type: gauss,
                           rc: 0.38,
                           lmax: 2}
    cutoffs: {filter: 2.23,
              core: 1.02}
    projectors:
      #              energy  rcut
      - 3s(2.00)   -62.623   1.270
      - 4s(2.00)    -4.466   1.270
      - 3p(6.00)   -38.862   1.058
      - 4p(0.00)    -1.466   1.058
      - 3d(2.00)    -4.258   1.058
      -  d          22.953   1.058
  
    # Using partial waves for Ti as LCAO basis

  C:
    name: Carbon
    id: 4aa54d4b901d75f77cc0ea3eec22967b
    Z: 6.0
    valence: 4
    core: 2
    charge: 0.0
    file: /home/intvengiel/miniconda3/envs/gpaw-env/share/gpaw/C.PBE.gz
    compensation charges: {type: gauss,
                           rc: 0.20,
                           lmax: 2}
    cutoffs: {filter: 1.14,
              core: 1.14}
    projectors:
      #              energy  rcut
      - 2s(2.00)   -13.751   0.635
      - 2p(2.00)    -5.284   0.635
      -  s          13.461   0.635
      -  p          21.927   0.635
      -  d           0.000   0.635
  
    # Using partial waves for C as LCAO basis

  O:
    name: Oxygen
    id: 32ecd46bf208036f09c70b0ec9a88b78
    Z: 8.0
    valence: 6
    core: 2
    charge: 0.0
    file: /home/intvengiel/miniconda3/envs/gpaw-env/share/gpaw/O.PBE.gz
    compensation charges: {type: gauss,
                           rc: 0.21,
                           lmax: 2}
    cutoffs: {filter: 1.17,
              core: 0.83}
    projectors:
      #              energy  rcut
      - 2s(2.00)   -23.961   0.688
      - 2p(4.00)    -9.029   0.598
      -  s           3.251   0.688
      -  p          18.182   0.598
      -  d           0.000   0.619
  
    # Using partial waves for O as LCAO basis

Reference energy: -195011.959433  # eV

Spin-paired calculation

Convergence criteria:
 Maximum [total energy] change in last 3 cyles: 0.0005 eV / valence electron
 Maximum integral of absolute [dens]ity change: 0.0001 electrons / valence electron
 Maximum integral of absolute [eigenst]ate change: 4e-08 eV^2 / valence electron
 Maximum number of scf [iter]ations: 333
 (Square brackets indicate name in SCF output, whereas a 'c' in
 the SCF output indicates the quantity has converged.)

Symmetries present (total): 1

  ( 1  0  0)
  ( 0  1  0)
  ( 0  0  1)

125 k-points: 5 x 5 x 5 Monkhorst-Pack grid
63 k-points in the irreducible part of the Brillouin zone
       k-points in crystal coordinates                weights
   0:     0.00000000    0.00000000    0.00000000          1/125
   1:     0.00000000    0.00000000    0.20000000          2/125
   2:     0.00000000    0.00000000    0.40000000          2/125
   3:     0.00000000    0.20000000   -0.40000000          2/125
   4:     0.00000000    0.20000000   -0.20000000          2/125
   5:     0.00000000    0.20000000    0.00000000          2/125
   6:     0.00000000    0.20000000    0.20000000          2/125
   7:     0.00000000    0.20000000    0.40000000          2/125
   8:     0.00000000    0.40000000   -0.40000000          2/125
   9:     0.00000000    0.40000000   -0.20000000          2/125
          ...
  62:     0.40000000    0.40000000    0.40000000          2/125

Wave functions: Plane wave expansion
  Cutoff energy: 700.000 eV
  Number of coefficients (min, max): 6647, 6679
  Pulay-stress correction: 0.000000 eV/Ang^3 (de/decut=0.000000)
  Using FFTW library
  ScaLapack parameters: grid=1x1, blocksize=None
  Wavefunction extrapolation:
    Improved wavefunction reuse through dual PAW basis 

Occupation numbers: Fermi-Dirac:
  width: 0.1000  # eV
 

Eigensolver
   Davidson(niter=2) 

Densities:
  Coarse grid: 40*40*30 grid
  Fine grid: 80*80*60 grid
  Total Charge: 0.000000 

Density mixing:
  Method: separate
  Backend: pulay
  Linear mixing parameter: 0.05
  old densities: 5
  Damping of long wavelength oscillations: 50 

Hamiltonian:
  XC and Coulomb potentials evaluated on a 80*80*60 grid
  Using the PBE Exchange-Correlation functional
  External potential:
    NoExternalPotential
 

XC parameters: PBE with 2 nearest neighbor stencil

Memory estimate:
  Process memory now: 203.83 MiB
  Calculator: 666.75 MiB
    Density: 23.83 MiB
      Arrays: 9.52 MiB
      Localized functions: 10.65 MiB
      Mixer: 3.66 MiB
    Hamiltonian: 6.51 MiB
      Arrays: 6.23 MiB
      XC: 0.00 MiB
      Poisson: 0.00 MiB
      vbar: 0.29 MiB
    Wavefunctions: 636.40 MiB
      Arrays psit_nG: 520.06 MiB
      Eigensolver: 9.77 MiB
      Projections: 18.30 MiB
      Projectors: 80.02 MiB
      PW-descriptor: 8.25 MiB

Total number of cores used: 1

Number of atoms: 15
Number of atomic orbitals: 132
Number of bands in calculation: 81
Number of valence electrons: 128
Bands to converge: occupied

... initialized

Initializing position-dependent things.

Density initialized from atomic densities
Creating initial wave functions:
  81 bands from LCAO basis set

                                
                                
                                
                                
                 O  C O         
                                
                                
                                
                                
                                
                                
               Ti               
                   C            
         Ti      Ti             
              C      C          
           Ti     Ti            
                C               
            Ti      Ti          
               Ti               
                                
                                
                                
                                

Positions:
   0 Ti     0.000000    0.000000    3.586778    ( 0.0000,  0.0000,  0.0000)
   1 Ti     1.540698   -0.889523    1.226991    ( 0.0000,  0.0000,  0.0000)
   2 C      1.540698    0.889523    2.406886    ( 0.0000,  0.0000,  0.0000)
   3 Ti     1.540698    2.668568    3.586778    ( 0.0000,  0.0000,  0.0000)
   4 Ti     3.081396    1.779045    1.226991    ( 0.0000,  0.0000,  0.0000)
   5 C      3.081396    3.558090    2.406886    ( 0.0000,  0.0000,  0.0000)
   6 Ti     1.540698   -2.668568    3.586778    ( 0.0000,  0.0000,  0.0000)
   7 Ti     3.081396   -3.558090    1.226991    ( 0.0000,  0.0000,  0.0000)
   8 C      3.081396   -1.779045    2.406886    ( 0.0000,  0.0000,  0.0000)
   9 Ti     3.081396   -0.000000    3.586778    ( 0.0000,  0.0000,  0.0000)
  10 Ti     4.622095   -0.889523    1.226991    ( 0.0000,  0.0000,  0.0000)
  11 C      4.622095    0.889523    2.406886    ( 0.0000,  0.0000,  0.0000)
  12 C      3.540698    2.889523    9.086778    ( 0.0000,  0.0000,  0.0000)
  13 O      4.713033    2.889523    9.086778    ( 0.0000,  0.0000,  0.0000)
  14 O      2.368363    2.889523    9.086778    ( 0.0000,  0.0000,  0.0000)

Unit cell:
           periodic     x           y           z      points  spacing
  1. axis:    yes    3.081396   -5.337135    0.000000    40     0.1334
  2. axis:    yes    3.081396    5.337135    0.000000    40     0.1334
  3. axis:    yes    0.000000    0.000000    4.813770    30     0.1605

  Lengths:   6.162793   6.162793   4.813770
  Angles:   90.000000  90.000000 120.000000

Effective grid spacing dv^(1/3) = 0.1489

     iter     time        total  log10-change:
                         energy   eigst   dens
iter:   1 08:31:49    39.945672
iter:   2 08:32:17    52.444065   -0.13  -0.91
iter:   3 08:32:44    64.711802   +0.45  -0.99
iter:   4 08:33:12    64.427519   -0.05  -1.22
iter:   5 08:33:40    63.626339   -0.48  -1.31
iter:   6 08:34:12    61.010463   -0.09  -1.47
iter:   7 08:34:39    62.169201   -1.16  -1.56
iter:   8 08:35:07    62.553714   -0.97  -1.72
iter:   9 08:35:34    62.551832   -1.39  -1.88
iter:  10 08:36:01    62.500996c  -1.42  -2.07
iter:  11 08:36:28    62.526579c  -2.01  -2.16
iter:  12 08:36:56    62.547274c  -1.99  -2.31
iter:  13 08:37:23    62.570397c  -2.37  -2.42
iter:  14 08:37:50    62.573404c  -3.17  -2.58
iter:  15 08:38:18    62.576267c  -2.67  -2.64
iter:  16 08:38:45    62.579325c  -3.23  -2.75
iter:  17 08:39:13    62.580026c  -4.09  -2.93
iter:  18 08:39:41    62.579948c  -4.12  -2.99
iter:  19 08:40:08    62.577938c  -3.66  -3.10
iter:  20 08:40:37    62.578472c  -4.35  -3.17
iter:  21 08:41:04    62.578607c  -4.76  -3.30
iter:  22 08:41:30    62.578588c  -4.11  -3.37
iter:  23 08:41:56    62.578659c  -4.35  -3.53
iter:  24 08:42:22    62.578699c  -5.46  -3.72
iter:  25 08:42:47    62.578677c  -5.25  -3.75
iter:  26 08:43:13    62.578673c  -5.19  -3.84
iter:  27 08:43:39    62.578664c  -5.63  -4.02c
iter:  28 08:44:05    62.578669c  -6.17  -4.23c
iter:  29 08:44:31    62.578677c  -6.35  -4.28c
iter:  30 08:44:58    62.578668c  -6.09  -4.32c
iter:  31 08:45:25    62.578671c  -7.26  -4.51c
iter:  32 08:45:53    62.578675c  -6.54  -4.56c
iter:  33 08:46:19    62.578673c  -6.79  -4.60c
iter:  34 08:46:44    62.578676c  -7.26  -4.83c
iter:  35 08:47:10    62.578676c  -7.78c -5.04c

Converged after 35 iterations.

Dipole moment: (-4.416457, -11.383693, 6.843636) |e|*Ang

Energy contributions relative to reference atoms: (reference = -195011.959433)

Kinetic:       +708.706165
Potential:     -460.457278
External:        +0.000000
XC:            -181.686272
Entropy (-ST):   -0.278749
Local:           -3.844564
SIC:             +0.000000
--------------------------
Free energy:    +62.439301
Extrapolated:   +62.578676

Showing only first 2 kpts
 Kpt  Band  Eigenvalues  Occupancy
  0    62     10.19998    1.93651
  0    63     10.31994    1.80375
  0    64     10.63077    0.58217
  0    65     10.96532    0.02853

  1    62     10.23564    1.91053
  1    63     10.35035    1.74295
  1    64     10.57829    0.81936
  1    65     11.00704    0.01889


Fermi level: 10.54176

No gap
No difference between direct/indirect transitions

Forces in eV/Ang:
  0 Ti    0.43915    1.03940   -1.08961
  1 Ti   -0.31900    0.48375    1.03369
  2 C    -0.07687   -1.01151   -0.56459
  3 Ti -100.28694  -26.65989  -80.46326
  4 Ti    0.40322   -1.12171    3.08090
  5 C    -1.27274    1.87124   -4.95875
  6 Ti  -29.14667 -141.58957 -438.84140
  7 Ti    0.02959   -0.74607    1.58757
  8 C     0.00911    2.08477   -2.33886
  9 Ti    0.39627   -0.36966   -0.93140
 10 Ti   -0.28679    0.30902    1.38677
 11 C     0.12208   -1.96700   -1.66221
 12 C   -43.31007    6.22541   20.72667
 13 O    92.85285  135.82773  422.66564
 14 O    80.44946   25.62558   80.36974

System changes: positions 

Initializing position-dependent things.

Density initialized from wave functions
                                 
                                 
                                 
                                 
                 O  C  O         
                                 
                                 
                                 
                                 
                                 
                                 
               Ti                
                    C            
          Ti     Ti              
              C       C          
            Ti    Ti             
                C                
             Ti      Ti          
               Ti                
                                 
                                 
                                 
                                 

Positions:
   0 Ti     0.000190    0.000450    3.586306    ( 0.0000,  0.0000,  0.0000)
   1 Ti     1.540560   -0.889313    1.227438    ( 0.0000,  0.0000,  0.0000)
   2 C      1.540665    0.889085    2.406642    ( 0.0000,  0.0000,  0.0000)
   3 Ti     1.497287    2.657027    3.551948    ( 0.0000,  0.0000,  0.0000)
   4 Ti     3.081571    1.778559    1.228325    ( 0.0000,  0.0000,  0.0000)
   5 C      3.080845    3.558900    2.404740    ( 0.0000,  0.0000,  0.0000)
   6 Ti     1.528082   -2.729857    3.396819    ( 0.0000,  0.0000,  0.0000)
   7 Ti     3.081409   -3.558413    1.227678    ( 0.0000,  0.0000,  0.0000)
   8 C      3.081400   -1.778143    2.405874    ( 0.0000,  0.0000,  0.0000)
   9 Ti     3.081568   -0.000160    3.586375    ( 0.0000,  0.0000,  0.0000)
  10 Ti     4.621970   -0.889389    1.227591    ( 0.0000,  0.0000,  0.0000)
  11 C      4.622147    0.888671    2.406167    ( 0.0000,  0.0000,  0.0000)
  12 C      3.521951    2.892217    9.095750    ( 0.0000,  0.0000,  0.0000)
  13 O      4.753226    2.948318    9.269735    ( 0.0000,  0.0000,  0.0000)
  14 O      2.403187    2.900615    9.121567    ( 0.0000,  0.0000,  0.0000)

Unit cell:
           periodic     x           y           z      points  spacing
  1. axis:    yes    3.081396   -5.337135    0.000000    40     0.1334
  2. axis:    yes    3.081396    5.337135    0.000000    40     0.1334
  3. axis:    yes    0.000000    0.000000    4.813770    30     0.1605

  Lengths:   6.162793   6.162793   4.813770
  Angles:   90.000000  90.000000 120.000000

Effective grid spacing dv^(1/3) = 0.1489

     iter     time        total  log10-change:
                         energy   eigst   dens
iter:   1 08:47:42  -102.679895   +1.33
iter:   2 08:48:08   -91.836517   +0.24  -1.13
iter:   3 08:48:34   -71.611907   +0.96  -1.19
iter:   4 08:49:00   -60.471494   +0.07  -1.21
iter:   5 08:49:26   -61.208345   -0.43  -1.54
iter:   6 08:49:52   -69.423199   +0.55  -1.60
iter:   7 08:50:18   -62.315651   -0.95  -1.44
iter:   8 08:50:45   -58.299638   -0.40  -1.58
iter:   9 08:51:11   -58.228540   -0.99  -1.80
iter:  10 08:51:36   -57.228455   -0.54  -1.92
iter:  11 08:52:01   -57.318644   -1.18  -2.24
iter:  12 08:52:27   -57.292496   -2.02  -2.29
iter:  13 08:52:52   -57.283838c  -2.10  -2.48
iter:  14 08:53:18   -57.276108c  -2.87  -2.58
iter:  15 08:53:45   -57.293835c  -2.40  -2.68
iter:  16 08:54:12   -57.279103c  -2.47  -2.69
iter:  17 08:54:40   -57.278069c  -3.83  -2.98
iter:  18 08:55:07   -57.278389c  -3.65  -3.04
iter:  19 08:55:34   -57.280501c  -2.96  -3.09
iter:  20 08:56:01   -57.277783c  -3.87  -3.18
iter:  21 08:56:28   -57.277599c  -4.30  -3.30
iter:  22 08:56:55   -57.277801c  -4.22  -3.34
iter:  23 08:57:23   -57.277651c  -3.94  -3.46
iter:  24 08:57:50   -57.277603c  -4.98  -3.56
iter:  25 08:58:18   -57.277621c  -4.50  -3.65
iter:  26 08:58:46   -57.277637c  -4.86  -3.87
iter:  27 08:59:15   -57.277624c  -6.08  -4.10c
iter:  28 08:59:42   -57.277621c  -5.86  -4.21c
iter:  29 09:00:10   -57.277625c  -6.45  -4.29c
iter:  30 09:00:37   -57.277624c  -5.78  -4.37c
iter:  31 09:01:04   -57.277627c  -6.33  -4.47c
iter:  32 09:01:32   -57.277629c  -6.68  -4.77c
iter:  33 09:01:59   -57.277625c  -6.61  -4.81c
iter:  34 09:02:26   -57.277627c  -7.19  -4.88c
iter:  35 09:02:53   -57.277627c  -7.24  -5.00c
iter:  36 09:03:20   -57.277625c  -7.48c -5.09c

Converged after 36 iterations.

Dipole moment: (-2.990047, -11.414728, 9.030986) |e|*Ang

Energy contributions relative to reference atoms: (reference = -195011.959433)

Kinetic:       +425.003800
Potential:     -326.305521
External:        +0.000000
XC:            -154.083294
Entropy (-ST):   -0.267920
Local:           -1.758650
SIC:             +0.000000
--------------------------
Free energy:    -57.411585
Extrapolated:   -57.277625

Showing only first 2 kpts
 Kpt  Band  Eigenvalues  Occupancy
  0    62     10.39840    1.93033
  0    63     10.67531    1.26949
  0    64     11.05740    0.07335
  0    65     11.07844    0.05985

  1    62     10.39392    1.93328
  1    63     10.59578    1.58759
  1    64     11.00082    0.12565
  1    65     11.19677    0.01872


Fermi level: 10.73057

No gap
No difference between direct/indirect transitions

Forces in eV/Ang:
  0 Ti    0.11228    0.87329   -1.27629
  1 Ti    0.10678    0.88504    0.72671
  2 C    -0.08428   -0.96782   -0.53141
  3 Ti  -56.43622  -15.39570  -44.38563
  4 Ti   -0.44829   -1.69470    1.77157
  5 C    -0.86285    1.56147   -3.86954
  6 Ti    6.75965  -38.13704 -121.75182
  7 Ti    0.04754   -0.58166    0.32617
  8 C    -0.08470    2.22025   -2.39261
  9 Ti    0.54237    0.17345   -1.15136
 10 Ti   -0.16166    0.49413    0.79433
 11 C     0.27145   -3.23809   -1.53087
 12 C    -9.66828    3.24154   14.64184
 13 O    28.81324   34.56840  111.42399
 14 O    31.09092   15.99630   47.20029

System changes: positions 

Initializing position-dependent things.

Density initialized from wave functions
                                 
                                 
                                 
                                 
                  O C  O         
                                 
                                 
                                 
                                 
                                 
                                 
                                 
               Ti  C             
          Ti     Ti              
              C       C          
            Ti    Ti             
                C                
             Ti      Ti          
               Ti                
                                 
                                 
                                 
                                 

Positions:
   0 Ti     0.000153    0.003578    3.581118    ( 0.0000,  0.0000,  0.0000)
   1 Ti     1.541583   -0.885325    1.229799    ( 0.0000,  0.0000,  0.0000)
   2 C      1.540329    0.885416    2.404641    ( 0.0000,  0.0000,  0.0000)
   3 Ti     1.342686    2.613849    3.432642    ( 0.0000,  0.0000,  0.0000)
   4 Ti     3.078619    1.771203    1.233274    ( 0.0000,  0.0000,  0.0000)
   5 C      3.078108    3.564475    2.391385    ( 0.0000,  0.0000,  0.0000)
   6 Ti     1.605718   -2.728297    3.382866    ( 0.0000,  0.0000,  0.0000)
   7 Ti     3.081618   -3.560419    1.227124    ( 0.0000,  0.0000,  0.0000)
   8 C      3.080939   -1.769388    2.396572    ( 0.0000,  0.0000,  0.0000)
   9 Ti     3.083869    0.001289    3.581620    ( 0.0000,  0.0000,  0.0000)
  10 Ti     4.621527   -0.887218    1.229803    ( 0.0000,  0.0000,  0.0000)
  11 C      4.623408    0.874361    2.400453    ( 0.0000,  0.0000,  0.0000)
  12 C      3.532997    2.900429    9.143461    ( 0.0000,  0.0000,  0.0000)
  13 O      4.772330    2.936149    9.252269    ( 0.0000,  0.0000,  0.0000)
  14 O      2.452160    2.948457    9.255903    ( 0.0000,  0.0000,  0.0000)

Unit cell:
           periodic     x           y           z      points  spacing
  1. axis:    yes    3.081396   -5.337135    0.000000    40     0.1334
  2. axis:    yes    3.081396    5.337135    0.000000    40     0.1334
  3. axis:    yes    0.000000    0.000000    4.813770    30     0.1605

  Lengths:   6.162793   6.162793   4.813770
  Angles:   90.000000  90.000000 120.000000

Effective grid spacing dv^(1/3) = 0.1489

     iter     time        total  log10-change:
                         energy   eigst   dens
iter:   1 09:03:54   -71.973636   +0.48
iter:   2 09:04:21   -71.576118   -0.62  -1.61
iter:   3 09:04:48   -70.774719   -1.28  -1.69
iter:   4 09:05:15   -69.902100   -1.05  -1.78
iter:   5 09:05:42   -69.778287   -0.87  -1.96
iter:   6 09:06:09   -69.708083   -1.83  -2.05
iter:   7 09:06:35   -69.724102   -2.29  -2.27
iter:   8 09:07:02   -69.716515c  -3.06  -2.37
iter:   9 09:07:30   -69.726749c  -2.65  -2.47
iter:  10 09:07:57   -69.733848c  -2.70  -2.62
iter:  11 09:08:24   -69.730028c  -3.59  -2.75
iter:  12 09:08:51   -69.728134c  -3.32  -2.83
iter:  13 09:09:19   -69.731122c  -3.53  -3.01
iter:  14 09:09:46   -69.729729c  -3.94  -3.06
iter:  15 09:10:13   -69.729807c  -4.17  -3.22
iter:  16 09:10:41   -69.729760c  -4.67  -3.37
iter:  17 09:11:08   -69.729798c  -4.43  -3.54
iter:  18 09:11:35   -69.729891c  -4.73  -3.64
iter:  19 09:12:02   -69.729899c  -5.33  -3.72
iter:  20 09:12:29   -69.729884c  -5.45  -3.89
iter:  21 09:12:56   -69.729876c  -6.06  -3.98
iter:  22 09:13:24   -69.729877c  -5.66  -4.06c
iter:  23 09:13:52   -69.729874c  -6.08  -4.20c
iter:  24 09:14:20   -69.729882c  -6.11  -4.30c
iter:  25 09:14:47   -69.729884c  -6.95  -4.56c
iter:  26 09:15:15   -69.729884c  -6.95  -4.64c
iter:  27 09:15:42   -69.729884c  -7.22  -4.79c
iter:  28 09:16:09   -69.729880c  -7.78c -4.89c

Converged after 28 iterations.

Dipole moment: (-2.043806, -16.449256, 10.745165) |e|*Ang

Energy contributions relative to reference atoms: (reference = -195011.959433)

Kinetic:       +371.176641
Potential:     -293.057239
External:        +0.000000
XC:            -146.830961
Entropy (-ST):   -0.263428
Local:           -0.886607
SIC:             +0.000000
--------------------------
Free energy:    -69.861594
Extrapolated:   -69.729880

Showing only first 2 kpts
 Kpt  Band  Eigenvalues  Occupancy
  0    62     10.68463    1.50222
  0    63     10.88042    0.59747
  0    64     11.11024    0.08206
  0    65     11.26901    0.01734

  1    62     10.63386    1.66745
  1    63     10.77657    1.09230
  1    64     11.17259    0.04484
  1    65     11.32729    0.00972


Fermi level: 10.79508

No gap
No difference between direct/indirect transitions

Forces in eV/Ang:
  0 Ti   -0.13174    0.18023   -1.12773
  1 Ti    0.22927    0.88315    0.58179
  2 C    -0.12820   -0.79408   -0.59154
  3 Ti  -10.69920   -3.95151   -9.10365
  4 Ti   -0.70665   -1.62744    1.64456
  5 C    -0.70208    0.80472   -2.71148
  6 Ti    4.24701  -38.37805 -126.45826
  7 Ti   -0.24709   -1.03110   -0.66738
  8 C     0.09594    2.43601   -2.67892
  9 Ti    0.46493    0.67804   -1.05354
 10 Ti    0.10286    0.22425    0.06198
 11 C     0.02195   -2.98288   -1.30593
 12 C    -2.50607    0.48012    7.24699
 13 O    22.87989   36.26742  120.46176
 14 O   -12.91887    6.81077   15.70387

System changes: positions 

Initializing position-dependent things.

Density initialized from wave functions
                                 
                                 
                                 
                                 
                 O  C  O         
                                 
                                 
                                 
                                 
                                 
                                 
                                 
              Ti   C             
          Ti     Ti              
              C       C          
            Ti    Ti             
                C                
             Ti      Ti          
               Ti                
                                 
                                 
                                 
                                 

Positions:
   0 Ti    -0.001422    0.006319    3.570385    ( 0.0000,  0.0000,  0.0000)
   1 Ti     1.544616   -0.876394    1.234229    ( 0.0000,  0.0000,  0.0000)
   2 C      1.539302    0.878243    2.399765    ( 0.0000,  0.0000,  0.0000)
   3 Ti     1.276157    2.587077    3.381065    ( 0.0000,  0.0000,  0.0000)
   4 Ti     3.070436    1.755116    1.243706    ( 0.0000,  0.0000,  0.0000)
   5 C      3.072921    3.572332    2.368474    ( 0.0000,  0.0000,  0.0000)
   6 Ti     1.762215   -2.733425    3.300369    ( 0.0000,  0.0000,  0.0000)
   7 Ti     3.080257   -3.567735    1.219792    ( 0.0000,  0.0000,  0.0000)
   8 C      3.081030   -1.748370    2.373879    ( 0.0000,  0.0000,  0.0000)
   9 Ti     3.088552    0.007644    3.571550    ( 0.0000,  0.0000,  0.0000)
  10 Ti     4.622164   -0.884025    1.230267    ( 0.0000,  0.0000,  0.0000)
  11 C      4.624684    0.843854    2.388993    ( 0.0000,  0.0000,  0.0000)
  12 C      3.600014    2.901945    9.205228    ( 0.0000,  0.0000,  0.0000)
  13 O      4.782846    2.926329    9.290620    ( 0.0000,  0.0000,  0.0000)
  14 O      2.292265    2.999638    9.364595    ( 0.0000,  0.0000,  0.0000)

Unit cell:
           periodic     x           y           z      points  spacing
  1. axis:    yes    3.081396   -5.337135    0.000000    40     0.1334
  2. axis:    yes    3.081396    5.337135    0.000000    40     0.1334
  3. axis:    yes    0.000000    0.000000    4.813770    30     0.1605

  Lengths:   6.162793   6.162793   4.813770
  Angles:   90.000000  90.000000 120.000000

Effective grid spacing dv^(1/3) = 0.1489

     iter     time        total  log10-change:
                         energy   eigst   dens
iter:   1 09:16:43   -90.487499   +0.58
iter:   2 09:17:11   -88.644628   -0.52  -1.41
iter:   3 09:17:39   -86.012596   -0.13  -1.50
iter:   4 09:18:06   -85.589588   -1.50  -1.69
iter:   5 09:18:33   -85.284655   -1.49  -1.88
iter:   6 09:19:01   -85.695690   -0.73  -2.00
iter:   7 09:19:28   -85.219580   -1.44  -1.96
iter:   8 09:19:55   -85.208094   -2.29  -2.28
iter:   9 09:20:23   -85.205515c  -2.65  -2.43
iter:  10 09:20:50   -85.203363c  -2.45  -2.52
iter:  11 09:21:17   -85.204701c  -2.79  -2.66
iter:  12 09:21:44   -85.203006c  -3.61  -2.82
iter:  13 09:22:11   -85.201292c  -3.52  -2.89
iter:  14 09:22:38   -85.202076c  -3.85  -3.04
iter:  15 09:23:06   -85.201313c  -3.90  -3.12
iter:  16 09:23:33   -85.201209c  -4.46  -3.29
iter:  17 09:24:00   -85.200981c  -4.66  -3.37
iter:  18 09:24:27   -85.200962c  -4.43  -3.57
iter:  19 09:24:54   -85.200874c  -4.99  -3.66
iter:  20 09:25:21   -85.200929c  -4.80  -3.83
iter:  21 09:25:49   -85.200903c  -5.80  -3.95
iter:  22 09:26:17   -85.200902c  -6.53  -4.13c
iter:  23 09:26:44   -85.200908c  -6.42  -4.16c
iter:  24 09:27:11   -85.200906c  -6.11  -4.26c
iter:  25 09:27:38   -85.200908c  -6.65  -4.41c
iter:  26 09:28:06   -85.200908c  -7.16  -4.65c
iter:  27 09:28:33   -85.200908c  -6.95  -4.72c
iter:  28 09:29:01   -85.200910c  -7.52c -4.87c

Converged after 28 iterations.

Dipole moment: (-4.133318, -19.014899, 13.129823) |e|*Ang

Energy contributions relative to reference atoms: (reference = -195011.959433)

Kinetic:       +307.020114
Potential:     -254.032236
External:        +0.000000
XC:            -138.056766
Entropy (-ST):   -0.265133
Local:           +0.000546
SIC:             +0.000000
--------------------------
Free energy:    -85.333476
Extrapolated:   -85.200910

Showing only first 2 kpts
 Kpt  Band  Eigenvalues  Occupancy
  0    62     10.72947    1.39488
  0    63     10.91831    0.51718
  0    64     11.25500    0.02378
  0    65     11.43772    0.00386

  1    62     10.66989    1.61408
  1    63     10.89329    0.61875
  1    64     11.15737    0.06190
  1    65     11.36021    0.00837


Fermi level: 10.81298

No gap
No difference between direct/indirect transitions

Forces in eV/Ang:
  0 Ti   -0.03099   -0.43275   -0.84733
  1 Ti   -0.21258    0.54973   -0.10627
  2 C    -0.03247   -0.98147   -0.66129
  3 Ti   -3.53413   -3.03626   -6.25737
  4 Ti   -0.66637   -0.92988    0.90864
  5 C     0.12701    0.03721   -1.27394
  6 Ti    5.55002  -19.04680  -67.25718
  7 Ti   -0.03268   -1.49842   -1.86852
  8 C     0.99604    3.21983   -3.47014
  9 Ti    0.35914    0.90553   -0.93329
 10 Ti    0.19478   -0.16897   -0.34947
 11 C    -0.17119   -2.08240   -1.04433
 12 C   -17.21526   -0.17388    4.35127
 13 O    11.84789   18.37707   68.02426
 14 O     2.82041    5.26089   10.78681

System changes: positions 

Initializing position-dependent things.

Density initialized from wave functions
                                 
                                 
                                 
                                 
                 O  C  O         
                                 
                                 
                                 
                                 
                                 
                                 
                                 
              Ti   C             
          Ti     Ti              
              C       C          
             Ti   Ti             
                C                
             Ti      Ti          
               Ti                
                                 
                                 
                                 
                                 

Positions:
   0 Ti    -0.002645    0.001208    3.557134    ( 0.0000,  0.0000,  0.0000)
   1 Ti     1.543180   -0.866903    1.232707    ( 0.0000,  0.0000,  0.0000)
   2 C      1.538769    0.864245    2.390526    ( 0.0000,  0.0000,  0.0000)
   3 Ti     1.289456    2.561342    3.350416    ( 0.0000,  0.0000,  0.0000)
   4 Ti     3.058564    1.739153    1.253716    ( 0.0000,  0.0000,  0.0000)
   5 C      3.074882    3.573787    2.350369    ( 0.0000,  0.0000,  0.0000)
   6 Ti     1.954049   -2.710482    3.248664    ( 0.0000,  0.0000,  0.0000)
   7 Ti     3.080013   -3.587631    1.191750    ( 0.0000,  0.0000,  0.0000)
   8 C      3.093825   -1.702852    2.325121    ( 0.0000,  0.0000,  0.0000)
   9 Ti     3.094379    0.021379    3.557206    ( 0.0000,  0.0000,  0.0000)
  10 Ti     4.624884   -0.885088    1.224880    ( 0.0000,  0.0000,  0.0000)
  11 C      4.623234    0.808719    2.373803    ( 0.0000,  0.0000,  0.0000)
  12 C      3.462055    2.894788    9.262339    ( 0.0000,  0.0000,  0.0000)
  13 O      4.776780    2.896930    9.357999    ( 0.0000,  0.0000,  0.0000)
  14 O      2.224590    3.059936    9.466288    ( 0.0000,  0.0000,  0.0000)

Unit cell:
           periodic     x           y           z      points  spacing
  1. axis:    yes    3.081396   -5.337135    0.000000    40     0.1334
  2. axis:    yes    3.081396    5.337135    0.000000    40     0.1334
  3. axis:    yes    0.000000    0.000000    4.813770    30     0.1605

  Lengths:   6.162793   6.162793   4.813770
  Angles:   90.000000  90.000000 120.000000

Effective grid spacing dv^(1/3) = 0.1489

     iter     time        total  log10-change:
                         energy   eigst   dens
iter:   1 09:29:36   -97.405245   +0.42
iter:   2 09:30:04   -96.406706   -0.64  -1.51
iter:   3 09:30:32   -94.799649   -0.39  -1.59
iter:   4 09:30:59   -94.743021   -1.29  -1.77
iter:   5 09:31:26   -94.193365   -1.27  -1.85
iter:   6 09:31:53   -94.318575   -1.14  -2.09
iter:   7 09:32:20   -94.154604   -1.81  -2.12
iter:   8 09:32:47   -94.163279   -2.67  -2.37
iter:   9 09:33:15   -94.154117c  -2.82  -2.46
iter:  10 09:33:42   -94.156308c  -2.44  -2.63
iter:  11 09:34:09   -94.152258c  -3.37  -2.74
iter:  12 09:34:37   -94.151973c  -3.68  -2.81
iter:  13 09:35:04   -94.152318c  -3.42  -2.89
iter:  14 09:35:31   -94.152311c  -3.82  -3.10
iter:  15 09:35:59   -94.152057c  -4.45  -3.18
iter:  16 09:36:26   -94.152133c  -4.41  -3.33
iter:  17 09:36:54   -94.152117c  -5.10  -3.44
iter:  18 09:37:21   -94.152078c  -4.82  -3.50
iter:  19 09:37:49   -94.152162c  -4.93  -3.63
iter:  20 09:38:17   -94.152219c  -5.51  -3.73
iter:  21 09:38:45   -94.152240c  -5.58  -3.84
iter:  22 09:39:12   -94.152259c  -5.70  -3.95
iter:  23 09:39:40   -94.152263c  -5.94  -4.03c
iter:  24 09:40:07   -94.152255c  -6.44  -4.24c
iter:  25 09:40:35   -94.152229c  -6.10  -4.36c
iter:  26 09:41:02   -94.152231c  -6.74  -4.71c
iter:  27 09:41:29   -94.152240c  -7.14  -4.77c
iter:  28 09:41:56   -94.152237c  -7.40c -4.84c

Converged after 28 iterations.

Dipole moment: (-6.729575, -19.908639, 14.025985) |e|*Ang

Energy contributions relative to reference atoms: (reference = -195011.959433)

Kinetic:       +263.342769
Potential:     -225.537722
External:        +0.000000
XC:            -132.392478
Entropy (-ST):   -0.250542
Local:           +0.560465
SIC:             +0.000000
--------------------------
Free energy:    -94.277508
Extrapolated:   -94.152237

Showing only first 2 kpts
 Kpt  Band  Eigenvalues  Occupancy
  0    62     10.62812    1.82963
  0    63     11.01933    0.35357
  0    64     11.43143    0.00695
  0    65     11.60789    0.00119

  1    62     10.63326    1.82144
  1    63     11.00778    0.38847
  1    64     11.22176    0.05517
  1    65     11.44768    0.00591


Fermi level: 10.86551

No gap
No difference between direct/indirect transitions

Forces in eV/Ang:
  0 Ti    0.12259   -0.58229   -0.78557
  1 Ti   -0.43804    0.30822   -0.48068
  2 C    -0.00349   -1.03756   -0.73962
  3 Ti    0.15557   -1.64882   -4.19088
  4 Ti   -0.10295   -1.14705    0.89095
  5 C     0.79073    0.03558   -0.27157
  6 Ti   -0.61165   -9.86405  -30.72718
  7 Ti    0.07980   -1.49576   -2.16112
  8 C     2.96454    3.64741   -3.87673
  9 Ti    0.29648    0.80677   -0.66439
 10 Ti    0.05319   -0.03472   -0.40176
 11 C    -0.06786   -0.33074   -0.49469
 12 C    -1.37348   -2.17656   -1.13867
 13 O     0.07992    8.42168   37.10492
 14 O    -1.94343    5.09805    7.94540

System changes: positions 

Initializing position-dependent things.

Density initialized from wave functions
                                
                                
                                
                                
                 O    O         
                   C            
                                
                                
                                
                                
                                
                                
              Ti   C            
         Ti      Ti             
              C      C          
             Ti   Ti            
                C               
             Ti     Ti          
               Ti               
                                
                                
                                
                                

Positions:
   0 Ti    -0.001294   -0.010438    3.538468    ( 0.0000,  0.0000,  0.0000)
   1 Ti     1.535587   -0.857534    1.223375    ( 0.0000,  0.0000,  0.0000)
   2 C      1.538588    0.841136    2.374584    ( 0.0000,  0.0000,  0.0000)
   3 Ti     1.321868    2.529595    3.289142    ( 0.0000,  0.0000,  0.0000)
   4 Ti     3.051035    1.713138    1.270227    ( 0.0000,  0.0000,  0.0000)
   5 C      3.089763    3.574802    2.339886    ( 0.0000,  0.0000,  0.0000)
   6 Ti     2.079933   -2.694402    3.244411    ( 0.0000,  0.0000,  0.0000)
   7 Ti     3.081699   -3.620075    1.142898    ( 0.0000,  0.0000,  0.0000)
   8 C      3.148410   -1.623443    2.240790    ( 0.0000,  0.0000,  0.0000)
   9 Ti     3.101897    0.040776    3.540011    ( 0.0000,  0.0000,  0.0000)
  10 Ti     4.626843   -0.885774    1.215629    ( 0.0000,  0.0000,  0.0000)
  11 C      4.621889    0.787346    2.359575    ( 0.0000,  0.0000,  0.0000)
  12 C      3.418562    2.853654    9.263098    ( 0.0000,  0.0000,  0.0000)
  13 O      4.676971    2.857043    9.483037    ( 0.0000,  0.0000,  0.0000)
  14 O      2.144273    3.162696    9.617911    ( 0.0000,  0.0000,  0.0000)

Unit cell:
           periodic     x           y           z      points  spacing
  1. axis:    yes    3.081396   -5.337135    0.000000    40     0.1334
  2. axis:    yes    3.081396    5.337135    0.000000    40     0.1334
  3. axis:    yes    0.000000    0.000000    4.813770    30     0.1605

  Lengths:   6.162793   6.162793   4.813770
  Angles:   90.000000  90.000000 120.000000

Effective grid spacing dv^(1/3) = 0.1489

     iter     time        total  log10-change:
                         energy   eigst   dens
iter:   1 09:42:30  -100.996949   +0.26
iter:   2 09:42:58  -100.678705   -0.68  -1.59
iter:   3 09:43:26   -99.968576   -0.99  -1.66
iter:   4 09:43:53   -99.941695   -1.95  -1.93
iter:   5 09:44:20   -99.821597   -1.80  -1.95
iter:   6 09:44:48   -99.823819   -1.62  -2.09
iter:   7 09:45:15   -99.780282c  -2.16  -2.28
iter:   8 09:45:43   -99.772998c  -2.93  -2.46
iter:   9 09:46:10   -99.771666c  -3.15  -2.60
iter:  10 09:46:38   -99.772511c  -3.59  -2.71
iter:  11 09:47:05   -99.774089c  -3.76  -2.81
iter:  12 09:47:33   -99.774223c  -3.60  -2.93
iter:  13 09:48:01   -99.773972c  -4.52  -3.13
iter:  14 09:48:28   -99.774011c  -3.71  -3.17
iter:  15 09:48:56   -99.773853c  -4.68  -3.36
iter:  16 09:49:24   -99.773763c  -4.49  -3.48
iter:  17 09:49:51   -99.773826c  -4.90  -3.66
iter:  18 09:50:19   -99.773807c  -5.16  -3.75
iter:  19 09:50:47   -99.773781c  -5.14  -3.80
iter:  20 09:51:14   -99.773779c  -6.14  -4.10c
iter:  21 09:51:42   -99.773784c  -6.64  -4.18c
iter:  22 09:52:10   -99.773806c  -6.36  -4.23c
iter:  23 09:52:37   -99.773812c  -6.49  -4.48c
iter:  24 09:53:05   -99.773799c  -6.69  -4.59c
iter:  25 09:53:33   -99.773801c  -7.47c -4.70c

Converged after 25 iterations.

Dipole moment: (-7.898422, -16.239113, 8.066597) |e|*Ang

Energy contributions relative to reference atoms: (reference = -195011.959433)

Kinetic:       +232.252146
Potential:     -204.374030
External:        +0.000000
XC:            -128.365508
Entropy (-ST):   -0.243267
Local:           +0.835224
SIC:             +0.000000
--------------------------
Free energy:    -99.895434
Extrapolated:   -99.773801

Showing only first 2 kpts
 Kpt  Band  Eigenvalues  Occupancy
  0    62     10.48500    1.96829
  0    63     10.99525    0.54814
  0    64     11.44110    0.00871
  0    65     11.60725    0.00166

  1    62     10.55421    1.93764
  1    63     10.92715    0.85450
  1    64     11.29106    0.03845
  1    65     11.45508    0.00757


Fermi level: 10.89784

No gap
No difference between direct/indirect transitions

Forces in eV/Ang:
  0 Ti    0.13461   -0.48011   -0.68222
  1 Ti    0.15351    0.47291   -0.05118
  2 C    -0.10786   -1.18132   -0.87143
  3 Ti    3.34074    0.64599    0.27583
  4 Ti    0.40658   -0.88837    0.32976
  5 C     0.88220   -0.12284    0.23901
  6 Ti   -2.76899   -4.77333  -12.63196
  7 Ti    0.05962   -1.09267   -1.74543
  8 C     1.62877    1.41433   -2.25259
  9 Ti    0.18535    0.76106   -0.41559
 10 Ti   -0.11495    1.62228    0.32616
 11 C     0.44827    1.17672    0.03409
 12 C    -4.96575   -3.52542   -4.27016
 13 O    -0.14801    4.01389   19.77037
 14 O     0.86613    1.95600    1.95439

System changes: positions 

Initializing position-dependent things.

Density initialized from wave functions
                                
                                
                                
                                
                 O    O         
                   C            
                                
                                
                                
                                
                                
                                
                                
              Ti   C            
         Ti      Ti             
              C      C          
             Ti   Ti            
             Ti C   Ti          
                                
               Ti               
                                
                                
                                
                                

Positions:
   0 Ti     0.001860   -0.025268    3.512026    ( 0.0000,  0.0000,  0.0000)
   1 Ti     1.536723   -0.840173    1.218978    ( 0.0000,  0.0000,  0.0000)
   2 C      1.535891    0.802377    2.346856    ( 0.0000,  0.0000,  0.0000)
   3 Ti     1.388313    2.521713    3.252236    ( 0.0000,  0.0000,  0.0000)
   4 Ti     3.054062    1.677610    1.285824    ( 0.0000,  0.0000,  0.0000)
   5 C      3.115186    3.574561    2.335031    ( 0.0000,  0.0000,  0.0000)
   6 Ti     2.155174   -2.683960    3.281604    ( 0.0000,  0.0000,  0.0000)
   7 Ti     3.083858   -3.660226    1.079797    ( 0.0000,  0.0000,  0.0000)
   8 C      3.207938   -1.551788    2.147756    ( 0.0000,  0.0000,  0.0000)
   9 Ti     3.110731    0.068132    3.520223    ( 0.0000,  0.0000,  0.0000)
  10 Ti     4.625198   -0.848321    1.219184    ( 0.0000,  0.0000,  0.0000)
  11 C      4.632058    0.795005    2.351034    ( 0.0000,  0.0000,  0.0000)
  12 C      3.312918    2.757391    9.186147    ( 0.0000,  0.0000,  0.0000)
  13 O      4.574514    2.817200    9.650115    ( 0.0000,  0.0000,  0.0000)
  14 O      2.101595    3.264236    9.756464    ( 0.0000,  0.0000,  0.0000)

Unit cell:
           periodic     x           y           z      points  spacing
  1. axis:    yes    3.081396   -5.337135    0.000000    40     0.1334
  2. axis:    yes    3.081396    5.337135    0.000000    40     0.1334
  3. axis:    yes    0.000000    0.000000    4.813770    30     0.1605

  Lengths:   6.162793   6.162793   4.813770
  Angles:   90.000000  90.000000 120.000000

Effective grid spacing dv^(1/3) = 0.1489

     iter     time        total  log10-change:
                         energy   eigst   dens
iter:   1 09:54:06  -104.052886   +0.12
iter:   2 09:54:33  -103.614905   -0.81  -1.59
iter:   3 09:55:00  -103.137509   -1.08  -1.70
iter:   4 09:55:28  -103.072205   -1.86  -1.95
iter:   5 09:55:55  -103.024787   -1.86  -2.01
iter:   6 09:56:22  -103.003183   -2.16  -2.13
iter:   7 09:56:50  -103.009848c  -2.28  -2.31
iter:   8 09:57:17  -102.989362c  -2.74  -2.47
iter:   9 09:57:45  -102.988298c  -3.41  -2.66
iter:  10 09:58:13  -102.987386c  -3.67  -2.74
iter:  11 09:58:41  -102.987643c  -3.67  -2.83
iter:  12 09:59:08  -102.988001c  -3.97  -2.98
iter:  13 09:59:36  -102.987921c  -4.45  -3.13
iter:  14 10:00:04  -102.987382c  -4.41  -3.19
iter:  15 10:00:32  -102.987658c  -4.65  -3.36
iter:  16 10:00:59  -102.987587c  -4.98  -3.51
iter:  17 10:01:27  -102.987581c  -5.55  -3.64
iter:  18 10:01:54  -102.987565c  -5.43  -3.67
iter:  19 10:02:21  -102.987582c  -5.18  -3.80
iter:  20 10:02:49  -102.987588c  -6.28  -4.01c
iter:  21 10:03:16  -102.987601c  -6.33  -4.07c
iter:  22 10:03:45  -102.987601c  -6.15  -4.15c
iter:  23 10:04:12  -102.987601c  -6.41  -4.28c
iter:  24 10:04:39  -102.987601c  -7.09  -4.58c
iter:  25 10:05:07  -102.987600c  -7.35  -4.65c
iter:  26 10:05:34  -102.987601c  -7.10  -4.75c
iter:  27 10:06:01  -102.987599c  -7.69c -4.80c

Converged after 27 iterations.

Dipole moment: (-6.561325, -9.786318, -4.433374) |e|*Ang

Energy contributions relative to reference atoms: (reference = -195011.959433)

Kinetic:       +213.989620
Potential:     -192.128346
External:        +0.000000
XC:            -125.644879
Entropy (-ST):   -0.243831
Local:           +0.917922
SIC:             +0.000000
--------------------------
Free energy:   -103.109515
Extrapolated:  -102.987599

Showing only first 2 kpts
 Kpt  Band  Eigenvalues  Occupancy
  0    62     10.51022    1.95955
  0    63     10.92779    0.85338
  0    64     11.35788    0.01998
  0    65     11.51795    0.00406

  1    62     10.56332    1.93217
  1    63     10.86236    1.17760
  1    64     11.26058    0.05201
  1    65     11.49307    0.00521


Fermi level: 10.89826

No gap
No difference between direct/indirect transitions

Forces in eV/Ang:
  0 Ti    0.33037   -0.18870   -0.41430
  1 Ti    0.56473    0.00326   -0.26018
  2 C    -0.31153   -0.16069   -0.35226
  3 Ti    3.01629    1.56070    2.17411
  4 Ti    0.98947    0.04717   -0.51525
  5 C     0.65068   -0.25186    0.85471
  6 Ti   -4.06460   -1.45120   -4.32922
  7 Ti    0.02772   -0.38411   -0.68028
  8 C    -1.01497   -1.67196    0.46784
  9 Ti    0.01186    0.48526   -0.01638
 10 Ti    0.02374    4.28924    1.16546
 11 C     0.84023    2.06384    0.54641
 12 C    -2.59135   -2.97823   -3.34603
 13 O    -1.90579    1.48251    8.55246
 14 O     3.43399   -2.84823   -3.84809

System changes: positions 

Initializing position-dependent things.

Density initialized from wave functions
                                
                                
                                
                                
                 O    O         
                   C            
                                
                                
                                
                                
                                
                                
                                
              Ti   C            
         Ti      Ti             
              C      C          
             Ti   Ti            
             Ti C   Ti          
                                
               Ti               
                                
                                
                                
                                

Positions:
   0 Ti     0.009155   -0.034463    3.492179    ( 0.0000,  0.0000,  0.0000)
   1 Ti     1.546143   -0.832568    1.211442    ( 0.0000,  0.0000,  0.0000)
   2 C      1.529328    0.783074    2.328949    ( 0.0000,  0.0000,  0.0000)
   3 Ti     1.439357    2.534436    3.247520    ( 0.0000,  0.0000,  0.0000)
   4 Ti     3.071378    1.661377    1.284782    ( 0.0000,  0.0000,  0.0000)
   5 C      3.137199    3.571423    2.345248    ( 0.0000,  0.0000,  0.0000)
   6 Ti     2.146047   -2.672490    3.315040    ( 0.0000,  0.0000,  0.0000)
   7 Ti     3.085492   -3.685113    1.039697    ( 0.0000,  0.0000,  0.0000)
   8 C      3.218189   -1.544838    2.111591    ( 0.0000,  0.0000,  0.0000)
   9 Ti     3.115393    0.088743    3.510156    ( 0.0000,  0.0000,  0.0000)
  10 Ti     4.625250   -0.758374    1.240325    ( 0.0000,  0.0000,  0.0000)
  11 C      4.650616    0.829134    2.355170    ( 0.0000,  0.0000,  0.0000)
  12 C      3.251403    2.667242    9.108301    ( 0.0000,  0.0000,  0.0000)
  13 O      4.471893    2.790522    9.773614    ( 0.0000,  0.0000,  0.0000)
  14 O      2.139190    3.270315    9.779333    ( 0.0000,  0.0000,  0.0000)

Unit cell:
           periodic     x           y           z      points  spacing
  1. axis:    yes    3.081396   -5.337135    0.000000    40     0.1334
  2. axis:    yes    3.081396    5.337135    0.000000    40     0.1334
  3. axis:    yes    0.000000    0.000000    4.813770    30     0.1605

  Lengths:   6.162793   6.162793   4.813770
  Angles:   90.000000  90.000000 120.000000

Effective grid spacing dv^(1/3) = 0.1489

     iter     time        total  log10-change:
                         energy   eigst   dens
iter:   1 10:06:35  -105.167381   -0.35
iter:   2 10:07:02  -105.046149   -1.29  -1.82
iter:   3 10:07:29  -104.877261   -1.63  -1.90
iter:   4 10:07:56  -104.821731   -2.04  -2.09
iter:   5 10:08:23  -104.804549   -1.78  -2.22
iter:   6 10:08:50  -104.800340c  -2.49  -2.40
iter:   7 10:09:18  -104.793395c  -2.62  -2.51
iter:   8 10:09:45  -104.787866c  -3.21  -2.71
iter:   9 10:10:12  -104.787462c  -3.64  -2.86
iter:  10 10:10:40  -104.786600c  -3.89  -2.92
iter:  11 10:11:07  -104.787069c  -3.88  -3.06
iter:  12 10:11:36  -104.786740c  -4.47  -3.23
iter:  13 10:12:03  -104.786719c  -4.60  -3.48
iter:  14 10:12:30  -104.786697c  -5.16  -3.56
iter:  15 10:12:57  -104.786672c  -4.99  -3.61
iter:  16 10:13:25  -104.786686c  -5.57  -3.80
iter:  17 10:13:52  -104.786688c  -5.94  -3.85
iter:  18 10:14:19  -104.786683c  -5.90  -3.90
iter:  19 10:14:47  -104.786682c  -5.89  -4.11c
iter:  20 10:15:14  -104.786681c  -6.59  -4.31c
iter:  21 10:15:42  -104.786682c  -6.99  -4.42c
iter:  22 10:16:09  -104.786688c  -6.70  -4.47c
iter:  23 10:16:37  -104.786690c  -6.76  -4.66c
iter:  24 10:17:04  -104.786691c  -7.71c -4.77c

Converged after 24 iterations.

Dipole moment: (-4.709234, -3.376986, -9.902794) |e|*Ang

Energy contributions relative to reference atoms: (reference = -195011.959433)

Kinetic:       +203.225283
Potential:     -184.898132
External:        +0.000000
XC:            -123.971576
Entropy (-ST):   -0.248004
Local:           +0.981737
SIC:             +0.000000
--------------------------
Free energy:   -104.910693
Extrapolated:  -104.786691

Showing only first 2 kpts
 Kpt  Band  Eigenvalues  Occupancy
  0    62     10.45293    1.97001
  0    63     10.78367    1.41256
  0    64     11.30346    0.02624
  0    65     11.52358    0.00294

  1    62     10.50598    1.94955
  1    63     10.78443    1.40942
  1    64     11.25164    0.04366
  1    65     11.48499    0.00432


Fermi level: 10.87141

No gap
No difference between direct/indirect transitions

Forces in eV/Ang:
  0 Ti    0.48428    0.13140   -0.00018
  1 Ti    0.60963   -0.30035   -0.49699
  2 C    -0.22676    0.79644    0.01998
  3 Ti    1.27189    1.33042    1.53531
  4 Ti    0.72775    0.50688   -0.60470
  5 C     0.40815   -0.23299    0.94646
  6 Ti   -4.06649   -0.26656   -1.61702
  7 Ti    0.11840    0.20723   -0.11028
  8 C    -1.32762   -2.48577    1.26640
  9 Ti   -0.16775    0.26531    0.33348
 10 Ti    0.94585    1.51010   -0.95485
 11 C     0.86231    2.24167    0.88370
 12 C    -0.59080   -1.88871   -0.98174
 13 O    -1.43482    0.29786    3.03759
 14 O     2.38608   -2.11378   -3.25278

System changes: positions 

Initializing position-dependent things.

Density initialized from wave functions
                                
                                
                                
                                
                 O    O         
                   C            
                                
                                
                                
                                
                                
                                
                                
               Ti  C            
         Ti      Ti             
              C      C          
             Ti   Ti            
             Ti C   Ti          
                                
               Ti               
                                
                                
                                
                                

Positions:
   0 Ti     0.023521   -0.036368    3.481252    ( 0.0000,  0.0000,  0.0000)
   1 Ti     1.563161   -0.834445    1.196234    ( 0.0000,  0.0000,  0.0000)
   2 C      1.521581    0.789402    2.319284    ( 0.0000,  0.0000,  0.0000)
   3 Ti     1.476133    2.562493    3.259212    ( 0.0000,  0.0000,  0.0000)
   4 Ti     3.094212    1.661593    1.273359    ( 0.0000,  0.0000,  0.0000)
   5 C      3.157996    3.565619    2.369120    ( 0.0000,  0.0000,  0.0000)
   6 Ti     2.067088   -2.659205    3.340894    ( 0.0000,  0.0000,  0.0000)
   7 Ti     3.089353   -3.694734    1.014004    ( 0.0000,  0.0000,  0.0000)
   8 C      3.201921   -1.587281    2.113109    ( 0.0000,  0.0000,  0.0000)
   9 Ti     3.114549    0.105838    3.511313    ( 0.0000,  0.0000,  0.0000)
  10 Ti     4.647344   -0.689709    1.224499    ( 0.0000,  0.0000,  0.0000)
  11 C      4.678293    0.892815    2.375493    ( 0.0000,  0.0000,  0.0000)
  12 C      3.217282    2.579691    9.052059    ( 0.0000,  0.0000,  0.0000)
  13 O      4.377563    2.766457    9.863543    ( 0.0000,  0.0000,  0.0000)
  14 O      2.206041    3.246210    9.750137    ( 0.0000,  0.0000,  0.0000)

Unit cell:
           periodic     x           y           z      points  spacing
  1. axis:    yes    3.081396   -5.337135    0.000000    40     0.1334
  2. axis:    yes    3.081396    5.337135    0.000000    40     0.1334
  3. axis:    yes    0.000000    0.000000    4.813770    30     0.1605

  Lengths:   6.162793   6.162793   4.813770
  Angles:   90.000000  90.000000 120.000000

Effective grid spacing dv^(1/3) = 0.1489

     iter     time        total  log10-change:
                         energy   eigst   dens
iter:   1 10:17:38  -106.397746   -0.38
iter:   2 10:18:05  -106.289263   -1.33  -1.85
iter:   3 10:18:32  -106.032995   -1.44  -1.90
iter:   4 10:18:59  -106.017849   -2.32  -2.13
iter:   5 10:19:26  -105.986724c  -2.04  -2.20
iter:   6 10:19:54  -106.000240c  -1.96  -2.38
iter:   7 10:20:21  -105.978788c  -2.72  -2.48
iter:   8 10:20:48  -105.977579c  -3.64  -2.69
iter:   9 10:21:16  -105.976147c  -3.00  -2.77
iter:  10 10:21:44  -105.976376c  -3.92  -3.00
iter:  11 10:22:11  -105.976307c  -4.23  -3.06
iter:  12 10:22:39  -105.976045c  -4.20  -3.10
iter:  13 10:23:06  -105.975811c  -4.24  -3.25
iter:  14 10:23:34  -105.975759c  -4.89  -3.44
iter:  15 10:24:01  -105.975660c  -4.70  -3.49
iter:  16 10:24:29  -105.975746c  -4.93  -3.65
iter:  17 10:24:56  -105.975744c  -5.61  -3.71
iter:  18 10:25:24  -105.975769c  -5.64  -3.73
iter:  19 10:25:51  -105.975751c  -4.91  -3.69
iter:  20 10:26:20  -105.975777c  -5.75  -3.96
iter:  21 10:26:47  -105.975770c  -6.03  -4.00
iter:  22 10:27:15  -105.975772c  -6.18  -4.10c
iter:  23 10:27:42  -105.975771c  -5.69  -4.19c
iter:  24 10:28:10  -105.975764c  -6.21  -4.44c
iter:  25 10:28:37  -105.975762c  -7.30  -4.56c
iter:  26 10:29:07  -105.975770c  -6.49  -4.67c
iter:  27 10:29:34  -105.975769c  -7.01  -4.70c
iter:  28 10:30:02  -105.975769c  -7.87c -5.03c

Converged after 28 iterations.

Dipole moment: (-3.641991, -0.747032, -10.570538) |e|*Ang

Energy contributions relative to reference atoms: (reference = -195011.959433)

Kinetic:       +196.673494
Potential:     -180.747476
External:        +0.000000
XC:            -122.823658
Entropy (-ST):   -0.241540
Local:           +1.042640
SIC:             +0.000000
--------------------------
Free energy:   -106.096539
Extrapolated:  -105.975769

Showing only first 2 kpts
 Kpt  Band  Eigenvalues  Occupancy
  0    62     10.38994    1.97513
  0    63     10.61946    1.77783
  0    64     11.26263    0.02543
  0    65     11.60558    0.00083

  1    62     10.39747    1.97322
  1    63     10.66774    1.66318
  1    64     11.24405    0.03055
  1    65     11.50770    0.00222


Fermi level: 10.82743

No gap
No difference between direct/indirect transitions

Forces in eV/Ang:
  0 Ti    0.39756    0.41587    0.20476
  1 Ti    0.57921   -0.18825   -0.37142
  2 C     0.03260    1.11029    0.07913
  3 Ti   -0.93360    0.92984    0.03909
  4 Ti   -0.03533    0.13936    0.10522
  5 C     0.19640   -0.01526    0.54710
  6 Ti   -2.84707    0.37682   -0.81677
  7 Ti    0.15152    0.69007    0.28972
  8 C    -0.18305   -1.75346    0.77777
  9 Ti   -0.14301    0.10775    0.27177
 10 Ti    0.42570   -0.87569   -0.96294
 11 C     0.58571    1.07856    0.44696
 12 C     0.85289   -1.36678    0.81048
 13 O     0.47553   -0.05170    0.23220
 14 O     0.44643   -0.59779   -1.65052

System changes: positions 

Initializing position-dependent things.

Density initialized from wave functions
                                
                                
                                
                                
                 O    O         
                   C            
                                
                                
                                
                                
                                
                                
                                
              Ti   C            
         Ti      Ti             
             C       C          
            Ti    Ti            
             Ti C   Ti          
                                
               Ti               
                                
                                
                                
                                

Positions:
   0 Ti     0.034322   -0.028809    3.483268    ( 0.0000,  0.0000,  0.0000)
   1 Ti     1.578388   -0.838938    1.185962    ( 0.0000,  0.0000,  0.0000)
   2 C      1.520297    0.812396    2.319066    ( 0.0000,  0.0000,  0.0000)
   3 Ti     1.469605    2.589272    3.267778    ( 0.0000,  0.0000,  0.0000)
   4 Ti     3.099832    1.665543    1.271589    ( 0.0000,  0.0000,  0.0000)
   5 C      3.166427    3.563626    2.386378    ( 0.0000,  0.0000,  0.0000)
   6 Ti     1.985391   -2.645896    3.345049    ( 0.0000,  0.0000,  0.0000)
   7 Ti     3.093018   -3.682791    1.015296    ( 0.0000,  0.0000,  0.0000)
   8 C      3.192228   -1.634171    2.132075    ( 0.0000,  0.0000,  0.0000)
   9 Ti     3.111364    0.111090    3.517424    ( 0.0000,  0.0000,  0.0000)
  10 Ti     4.659290   -0.686213    1.205857    ( 0.0000,  0.0000,  0.0000)
  11 C      4.695963    0.929862    2.389337    ( 0.0000,  0.0000,  0.0000)
  12 C      3.224438    2.533709    9.050077    ( 0.0000,  0.0000,  0.0000)
  13 O      4.364612    2.758619    9.874581    ( 0.0000,  0.0000,  0.0000)
  14 O      2.240893    3.221055    9.699847    ( 0.0000,  0.0000,  0.0000)

Unit cell:
           periodic     x           y           z      points  spacing
  1. axis:    yes    3.081396   -5.337135    0.000000    40     0.1334
  2. axis:    yes    3.081396    5.337135    0.000000    40     0.1334
  3. axis:    yes    0.000000    0.000000    4.813770    30     0.1605

  Lengths:   6.162793   6.162793   4.813770
  Angles:   90.000000  90.000000 120.000000

Effective grid spacing dv^(1/3) = 0.1489

     iter     time        total  log10-change:
                         energy   eigst   dens
iter:   1 10:30:36  -106.755281   -0.83
iter:   2 10:31:04  -106.625764   -1.78  -1.95
iter:   3 10:31:31  -106.498927   -1.71  -2.07
iter:   4 10:32:00  -106.486614   -2.65  -2.34
iter:   5 10:32:28  -106.475683c  -2.42  -2.43
iter:   6 10:32:55  -106.474287c  -2.92  -2.60
iter:   7 10:33:23  -106.475850c  -3.01  -2.72
iter:   8 10:33:50  -106.472238c  -3.40  -2.81
iter:   9 10:34:18  -106.471930c  -4.19  -3.06
iter:  10 10:34:46  -106.471898c  -4.34  -3.17
iter:  11 10:35:13  -106.471924c  -4.68  -3.26
iter:  12 10:35:40  -106.472088c  -4.64  -3.36
iter:  13 10:36:08  -106.472081c  -5.03  -3.53
iter:  14 10:36:36  -106.472012c  -5.24  -3.63
iter:  15 10:37:04  -106.472051c  -5.51  -3.74
iter:  16 10:37:35  -106.472014c  -5.36  -3.96
iter:  17 10:38:17  -106.472019c  -6.08  -4.09c
iter:  18 10:38:45  -106.472042c  -5.83  -4.12c
iter:  19 10:39:12  -106.472010c  -5.86  -4.22c
iter:  20 10:39:40  -106.472011c  -6.43  -4.34c
iter:  21 10:40:08  -106.472012c  -7.14  -4.49c
iter:  22 10:40:35  -106.472021c  -6.69  -4.54c
iter:  23 10:41:03  -106.472018c  -6.83  -4.62c
iter:  24 10:41:31  -106.472023c  -7.15  -4.73c
iter:  25 10:41:59  -106.472025c  -7.55c -5.13c

Converged after 25 iterations.

Dipole moment: (-3.110804, -1.934442, -9.037345) |e|*Ang

Energy contributions relative to reference atoms: (reference = -195011.959433)

Kinetic:       +196.176425
Potential:     -180.794656
External:        +0.000000
XC:            -122.799046
Entropy (-ST):   -0.235624
Local:           +1.063065
SIC:             +0.000000
--------------------------
Free energy:   -106.589836
Extrapolated:  -106.472025

Showing only first 2 kpts
 Kpt  Band  Eigenvalues  Occupancy
  0    62     10.38951    1.96807
  0    63     10.57055    1.81957
  0    64     11.23992    0.02468
  0    65     11.65896    0.00038

  1    62     10.38244    1.97022
  1    63     10.64075    1.66655
  1    64     11.23563    0.02574
  1    65     11.53549    0.00130


Fermi level: 10.80165

No gap
No difference between direct/indirect transitions

Forces in eV/Ang:
  0 Ti    0.23159    0.51539    0.10904
  1 Ti    0.47755    0.07024   -0.07508
  2 C     0.10712    0.78939   -0.00598
  3 Ti   -1.46601    0.58474   -0.81991
  4 Ti   -0.18841   -0.12468    0.47125
  5 C     0.05441    0.25363   -0.05527
  6 Ti   -1.48750    0.48971   -1.28276
  7 Ti    0.07115    0.66582    0.32953
  8 C     0.21766   -0.93702    0.23389
  9 Ti   -0.04950    0.19024    0.09532
 10 Ti    0.18522   -1.24053   -0.41143
 11 C     0.31216   -0.03339   -0.11058
 12 C     0.83370   -1.86502    0.99703
 13 O     1.06099    0.08590    0.62848
 14 O    -0.35913    0.55365   -0.10293

System changes: positions 

Initializing position-dependent things.

Density initialized from wave functions
                                
                                
                                
                                
                 O    O         
                   C            
                                
                                
                                
                                
                                
                                
                                
              Ti   C            
         Ti      Ti             
             C       C          
            Ti    Ti            
             Ti C   Ti          
                                
              Ti                
                                
                                
                                
                                

Positions:
   0 Ti     0.046711   -0.012777    3.486327    ( 0.0000,  0.0000,  0.0000)
   1 Ti     1.599701   -0.840036    1.177628    ( 0.0000,  0.0000,  0.0000)
   2 C      1.521279    0.844161    2.318280    ( 0.0000,  0.0000,  0.0000)
   3 Ti     1.448386    2.624487    3.266275    ( 0.0000,  0.0000,  0.0000)
   4 Ti     3.101236    1.665955    1.279624    ( 0.0000,  0.0000,  0.0000)
   5 C      3.173975    3.567638    2.397358    ( 0.0000,  0.0000,  0.0000)
   6 Ti     1.896555   -2.617357    3.343552    ( 0.0000,  0.0000,  0.0000)
   7 Ti     3.096797   -3.660971    1.022339    ( 0.0000,  0.0000,  0.0000)
   8 C      3.187793   -1.688243    2.150800    ( 0.0000,  0.0000,  0.0000)
   9 Ti     3.108242    0.119817    3.523436    ( 0.0000,  0.0000,  0.0000)
  10 Ti     4.671518   -0.703561    1.187323    ( 0.0000,  0.0000,  0.0000)
  11 C      4.715303    0.955182    2.396080    ( 0.0000,  0.0000,  0.0000)
  12 C      3.237534    2.455894    9.063635    ( 0.0000,  0.0000,  0.0000)
  13 O      4.371069    2.748313    9.879927    ( 0.0000,  0.0000,  0.0000)
  14 O      2.260009    3.209787    9.651051    ( 0.0000,  0.0000,  0.0000)

Unit cell:
           periodic     x           y           z      points  spacing
  1. axis:    yes    3.081396   -5.337135    0.000000    40     0.1334
  2. axis:    yes    3.081396    5.337135    0.000000    40     0.1334
  3. axis:    yes    0.000000    0.000000    4.813770    30     0.1605

  Lengths:   6.162793   6.162793   4.813770
  Angles:   90.000000  90.000000 120.000000

Effective grid spacing dv^(1/3) = 0.1489

     iter     time        total  log10-change:
                         energy   eigst   dens
iter:   1 10:42:33  -107.005703   -0.78
iter:   2 10:43:01  -106.937636   -1.69  -2.00
iter:   3 10:43:28  -106.867718   -1.87  -2.10
iter:   4 10:43:56  -106.859611   -2.64  -2.33
iter:   5 10:44:23  -106.852544c  -2.46  -2.41
iter:   6 10:44:51  -106.853005c  -2.87  -2.66
iter:   7 10:45:18  -106.850811c  -3.19  -2.79
iter:   8 10:45:46  -106.849069c  -3.36  -2.88
iter:   9 10:46:14  -106.849185c  -3.94  -3.07
iter:  10 10:46:41  -106.849246c  -4.33  -3.17
iter:  11 10:47:09  -106.849083c  -4.39  -3.25
iter:  12 10:47:36  -106.848966c  -4.59  -3.40
iter:  13 10:48:03  -106.848969c  -4.77  -3.65
iter:  14 10:48:30  -106.848956c  -5.53  -3.77
iter:  15 10:48:58  -106.848937c  -5.50  -3.82
iter:  16 10:49:25  -106.848956c  -5.69  -3.96
iter:  17 10:49:53  -106.848958c  -6.34  -4.07c
iter:  18 10:50:21  -106.848958c  -6.27  -4.14c
iter:  19 10:50:48  -106.848962c  -6.43  -4.21c
iter:  20 10:51:15  -106.848957c  -6.87  -4.30c
iter:  21 10:51:42  -106.848960c  -6.53  -4.38c
iter:  22 10:52:09  -106.848969c  -6.88  -4.56c
iter:  23 10:52:36  -106.848969c  -6.86  -4.74c
iter:  24 10:53:04  -106.848969c  -7.76c -4.91c

Converged after 24 iterations.

Dipole moment: (-2.388891, -3.484955, -6.938731) |e|*Ang

Energy contributions relative to reference atoms: (reference = -195011.959433)

Kinetic:       +196.855977
Potential:     -181.863341
External:        +0.000000
XC:            -122.804796
Entropy (-ST):   -0.232177
Local:           +1.079280
SIC:             +0.000000
--------------------------
Free energy:   -106.965058
Extrapolated:  -106.848969

Showing only first 2 kpts
 Kpt  Band  Eigenvalues  Occupancy
  0    62     10.39370    1.95224
  0    63     10.52916    1.82679
  0    64     11.19531    0.02662
  0    65     11.69075    0.00019

  1    62     10.38608    1.95566
  1    63     10.62480    1.60419
  1    64     11.20364    0.02452
  1    65     11.53667    0.00089


Fermi level: 10.76474

No gap
No difference between direct/indirect transitions

Forces in eV/Ang:
  0 Ti    0.03592    0.41929   -0.05761
  1 Ti    0.27423    0.26256    0.07740
  2 C     0.06471    0.33413   -0.04234
  3 Ti   -1.20348    0.19990   -1.02313
  4 Ti   -0.11006   -0.12551    0.61119
  5 C    -0.15684    0.65475   -0.66929
  6 Ti   -0.01564    0.37961   -1.95523
  7 Ti   -0.08040    0.48396    0.24623
  8 C     0.18749    0.06204   -0.37602
  9 Ti    0.04295    0.31761   -0.01496
 10 Ti    0.08645   -1.06344    0.10949
 11 C     0.05804   -0.79871   -0.44187
 12 C     0.01490   -2.08328    1.41639
 13 O     1.05776    0.13518    1.29105
 14 O    -0.25415    0.82133    0.82963

System changes: positions 

Initializing position-dependent things.

Density initialized from wave functions
                                
                                
                                
                                
                 O    O         
                   C            
                                
                                
                                
                                
                                
                                
                                
              Ti   C            
         Ti      Ti             
             C       C          
            Ti    Ti            
             Ti C   Ti          
                                
              Ti                
                                
                                
                                
                                

Positions:
   0 Ti     0.058523    0.007497    3.486302    ( 0.0000,  0.0000,  0.0000)
   1 Ti     1.623593   -0.835818    1.170453    ( 0.0000,  0.0000,  0.0000)
   2 C      1.522424    0.876449    2.315833    ( 0.0000,  0.0000,  0.0000)
   3 Ti     1.425377    2.662040    3.256417    ( 0.0000,  0.0000,  0.0000)
   4 Ti     3.102274    1.664091    1.297006    ( 0.0000,  0.0000,  0.0000)
   5 C      3.178819    3.583743    2.395093    ( 0.0000,  0.0000,  0.0000)
   6 Ti     1.823006   -2.575530    3.335023    ( 0.0000,  0.0000,  0.0000)
   7 Ti     3.098356   -3.635318    1.029373    ( 0.0000,  0.0000,  0.0000)
   8 C      3.186458   -1.732409    2.156791    ( 0.0000,  0.0000,  0.0000)
   9 Ti     3.106624    0.135258    3.528009    ( 0.0000,  0.0000,  0.0000)
  10 Ti     4.685015   -0.731728    1.173262    ( 0.0000,  0.0000,  0.0000)
  11 C      4.734484    0.965657    2.394900    ( 0.0000,  0.0000,  0.0000)
  12 C      3.242985    2.343345    9.097535    ( 0.0000,  0.0000,  0.0000)
  13 O      4.380361    2.730136    9.891237    ( 0.0000,  0.0000,  0.0000)
  14 O      2.267886    3.210816    9.616482    ( 0.0000,  0.0000,  0.0000)

Unit cell:
           periodic     x           y           z      points  spacing
  1. axis:    yes    3.081396   -5.337135    0.000000    40     0.1334
  2. axis:    yes    3.081396    5.337135    0.000000    40     0.1334
  3. axis:    yes    0.000000    0.000000    4.813770    30     0.1605

  Lengths:   6.162793   6.162793   4.813770
  Angles:   90.000000  90.000000 120.000000

Effective grid spacing dv^(1/3) = 0.1489

     iter     time        total  log10-change:
                         energy   eigst   dens
iter:   1 10:53:37  -107.248218   -0.70
iter:   2 10:54:04  -107.241375   -1.59  -2.07
iter:   3 10:54:31  -107.188493c  -1.93  -2.12
iter:   4 10:54:58  -107.177779c  -2.60  -2.31
iter:   5 10:55:25  -107.169244c  -2.49  -2.41
iter:   6 10:55:53  -107.171078c  -2.79  -2.64
iter:   7 10:56:20  -107.166806c  -3.04  -2.75
iter:   8 10:56:49  -107.165868c  -3.56  -2.92
iter:   9 10:57:16  -107.165013c  -3.69  -2.98
iter:  10 10:57:44  -107.165347c  -4.29  -3.18
iter:  11 10:58:11  -107.165231c  -4.93  -3.28
iter:  12 10:58:38  -107.164876c  -4.45  -3.34
iter:  13 10:59:06  -107.164899c  -4.97  -3.56
iter:  14 10:59:33  -107.164884c  -5.28  -3.68
iter:  15 11:00:01  -107.164858c  -5.50  -3.83
iter:  16 11:00:28  -107.164884c  -5.70  -3.96
iter:  17 11:00:57  -107.164887c  -6.03  -4.08c
iter:  18 11:01:25  -107.164890c  -6.34  -4.13c
iter:  19 11:01:53  -107.164899c  -6.59  -4.27c
iter:  20 11:02:20  -107.164887c  -6.73  -4.37c
iter:  21 11:02:46  -107.164887c  -7.34  -4.61c
iter:  22 11:03:12  -107.164890c  -6.95  -4.68c
iter:  23 11:03:37  -107.164887c  -7.87c -4.84c

Converged after 23 iterations.

Dipole moment: (-1.671198, -4.727118, -5.050874) |e|*Ang

Energy contributions relative to reference atoms: (reference = -195011.959433)

Kinetic:       +197.767763
Potential:     -183.217822
External:        +0.000000
XC:            -122.690629
Entropy (-ST):   -0.235787
Local:           +1.093693
SIC:             +0.000000
--------------------------
Free energy:   -107.282781
Extrapolated:  -107.164887

Showing only first 2 kpts
 Kpt  Band  Eigenvalues  Occupancy
  0    62     10.40095    1.91904
  0    63     10.48128    1.82784
  0    64     11.13859    0.02924
  0    65     11.68064    0.00013

  1    62     10.39661    1.92235
  1    63     10.60158    1.52246
  1    64     11.15418    0.02507
  1    65     11.50218    0.00078


Fermi level: 10.71752

No gap
No difference between direct/indirect transitions

Forces in eV/Ang:
  0 Ti   -0.10905    0.14251   -0.17284
  1 Ti   -0.00147    0.38284   -0.04992
  2 C    -0.08485   -0.07487   -0.01454
  3 Ti   -0.34538   -0.18798   -0.56139
  4 Ti   -0.01648   -0.07170    0.88490
  5 C    -0.36664    0.95874   -0.96753
  6 Ti    0.73464    0.16628   -2.02700
  7 Ti   -0.22876    0.23005    0.12168
  8 C    -0.11357    0.95092   -0.89168
  9 Ti    0.10919    0.30214   -0.03808
 10 Ti    0.06684   -0.63936    0.39843
 11 C    -0.12439   -0.97562   -0.44757
 12 C    -0.77494   -1.55391    1.49170
 13 O     0.95176    0.09424    1.22490
 14 O     0.30482    0.27200    1.04842

System changes: positions 

Initializing position-dependent things.

Density initialized from wave functions
                                
                                
                                
                                
                 O   O          
                                
                  C             
                                
                                
                                
                                
                                
                                
              Ti   C            
         Ti      Ti             
             C       C          
            Ti    Ti            
             Ti C   Ti          
                                
              Ti                
                                
                                
                                
                                

Positions:
   0 Ti     0.067655    0.027462    3.482708    ( 0.0000,  0.0000,  0.0000)
   1 Ti     1.645057   -0.824821    1.160855    ( 0.0000,  0.0000,  0.0000)
   2 C      1.521181    0.904533    2.313255    ( 0.0000,  0.0000,  0.0000)
   3 Ti     1.408998    2.694252    3.244907    ( 0.0000,  0.0000,  0.0000)
   4 Ti     3.102902    1.660656    1.330933    ( 0.0000,  0.0000,  0.0000)
   5 C      3.176708    3.616589    2.376208    ( 0.0000,  0.0000,  0.0000)
   6 Ti     1.770003   -2.526425    3.316388    ( 0.0000,  0.0000,  0.0000)
   7 Ti     3.095431   -3.608502    1.036448    ( 0.0000,  0.0000,  0.0000)
   8 C      3.183136   -1.753330    2.143381    ( 0.0000,  0.0000,  0.0000)
   9 Ti     3.107254    0.155101    3.531664    ( 0.0000,  0.0000,  0.0000)
  10 Ti     4.699428   -0.768773    1.165802    ( 0.0000,  0.0000,  0.0000)
  11 C      4.750329    0.960068    2.387148    ( 0.0000,  0.0000,  0.0000)
  12 C      3.239997    2.212352    9.154444    ( 0.0000,  0.0000,  0.0000)
  13 O      4.397153    2.705599    9.900364    ( 0.0000,  0.0000,  0.0000)
  14 O      2.271051    3.213322    9.599279    ( 0.0000,  0.0000,  0.0000)

Unit cell:
           periodic     x           y           z      points  spacing
  1. axis:    yes    3.081396   -5.337135    0.000000    40     0.1334
  2. axis:    yes    3.081396    5.337135    0.000000    40     0.1334
  3. axis:    yes    0.000000    0.000000    4.813770    30     0.1605

  Lengths:   6.162793   6.162793   4.813770
  Angles:   90.000000  90.000000 120.000000

Effective grid spacing dv^(1/3) = 0.1489

     iter     time        total  log10-change:
                         energy   eigst   dens
iter:   1 11:04:11  -107.545101   -0.63
iter:   2 11:04:36  -107.540833   -1.55  -2.08
iter:   3 11:05:02  -107.457604   -1.80  -2.12
iter:   4 11:05:28  -107.452192   -2.71  -2.33
iter:   5 11:05:54  -107.437184c  -2.38  -2.37
iter:   6 11:06:20  -107.444532c  -2.46  -2.60
iter:   7 11:06:46  -107.432074c  -3.15  -2.65
iter:   8 11:07:12  -107.432652c  -4.07  -2.88
iter:   9 11:07:39  -107.431561c  -3.58  -2.95
iter:  10 11:08:06  -107.431640c  -3.79  -3.18
iter:  11 11:08:34  -107.431533c  -4.68  -3.28
iter:  12 11:09:01  -107.431345c  -4.53  -3.33
iter:  13 11:09:27  -107.431329c  -4.76  -3.50
iter:  14 11:09:53  -107.431312c  -5.07  -3.60
iter:  15 11:10:19  -107.431325c  -5.12  -3.66
iter:  16 11:10:44  -107.431330c  -5.66  -3.75
iter:  17 11:11:10  -107.431333c  -5.66  -3.89
iter:  18 11:11:37  -107.431327c  -6.34  -4.04c
iter:  19 11:12:03  -107.431323c  -5.88  -4.13c
iter:  20 11:12:29  -107.431325c  -6.30  -4.30c
iter:  21 11:12:55  -107.431322c  -6.74  -4.46c
iter:  22 11:13:21  -107.431319c  -6.68  -4.52c
iter:  23 11:13:46  -107.431319c  -6.92  -4.61c
iter:  24 11:14:12  -107.431317c  -7.15  -4.79c
iter:  25 11:14:38  -107.431318c  -8.02c -4.91c

Converged after 25 iterations.

Dipole moment: (-1.202342, -5.675533, -3.649235) |e|*Ang

Energy contributions relative to reference atoms: (reference = -195011.959433)

Kinetic:       +198.535717
Potential:     -184.437571
External:        +0.000000
XC:            -122.514507
Entropy (-ST):   -0.240230
Local:           +1.105158
SIC:             +0.000000
--------------------------
Free energy:   -107.551433
Extrapolated:  -107.431318

Showing only first 2 kpts
 Kpt  Band  Eigenvalues  Occupancy
  0    62     10.41167    1.87090
  0    63     10.46200    1.79508
  0    64     11.11775    0.02456
  0    65     11.63334    0.00014

  1    62     10.41772    1.86339
  1    63     10.58815    1.42548
  1    64     11.13018    0.02172
  1    65     11.45276    0.00087


Fermi level: 10.67902

No gap
No difference between direct/indirect transitions

Forces in eV/Ang:
  0 Ti   -0.18729   -0.12717   -0.16627
  1 Ti   -0.31897    0.44274   -0.35371
  2 C    -0.30939   -0.40807    0.04073
  3 Ti    0.50922   -0.40943    0.16447
  4 Ti    0.20106    0.10025    1.23857
  5 C    -0.44576    0.84333   -0.78875
  6 Ti    0.53313   -0.20628   -1.26086
  7 Ti   -0.30711   -0.08748   -0.03552
  8 C    -0.34095    1.38418   -1.01761
  9 Ti    0.12087   -0.02904   -0.05444
 10 Ti    0.01180    0.00858    0.44508
 11 C    -0.21632   -0.69009   -0.25800
 12 C    -0.73187   -0.26351    0.43516
 13 O     0.68736    0.01731    0.71189
 14 O     0.79506   -0.57469    0.89990

System changes: positions 

Initializing position-dependent things.

Density initialized from wave functions
                                
                                
                                
                                
                 O    O         
                                
                  C             
                                
                                
                                
                                
                                
                                
              Ti   C            
         Ti      Ti             
             C       C          
            Ti    Ti            
             Ti C   Ti          
                                
              Ti                
                                
                                
                                
                                

Positions:
   0 Ti     0.066211    0.030717    3.479190    ( 0.0000,  0.0000,  0.0000)
   1 Ti     1.644368   -0.814130    1.153151    ( 0.0000,  0.0000,  0.0000)
   2 C      1.516167    0.904376    2.313365    ( 0.0000,  0.0000,  0.0000)
   3 Ti     1.413531    2.694419    3.244161    ( 0.0000,  0.0000,  0.0000)
   4 Ti     3.104933    1.660570    1.361663    ( 0.0000,  0.0000,  0.0000)
   5 C      3.168010    3.639461    2.356547    ( 0.0000,  0.0000,  0.0000)
   6 Ti     1.773932   -2.512833    3.303951    ( 0.0000,  0.0000,  0.0000)
   7 Ti     3.089445   -3.603045    1.037977    ( 0.0000,  0.0000,  0.0000)
   8 C      3.179451   -1.731719    2.120904    ( 0.0000,  0.0000,  0.0000)
   9 Ti     3.109638    0.159213    3.531185    ( 0.0000,  0.0000,  0.0000)
  10 Ti     4.702487   -0.783271    1.171009    ( 0.0000,  0.0000,  0.0000)
  11 C      4.749413    0.942919    2.379299    ( 0.0000,  0.0000,  0.0000)
  12 C      3.235999    2.177049    9.178856    ( 0.0000,  0.0000,  0.0000)
  13 O      4.412196    2.694961    9.897848    ( 0.0000,  0.0000,  0.0000)
  14 O      2.270544    3.209382    9.614706    ( 0.0000,  0.0000,  0.0000)

Unit cell:
           periodic     x           y           z      points  spacing
  1. axis:    yes    3.081396   -5.337135    0.000000    40     0.1334
  2. axis:    yes    3.081396    5.337135    0.000000    40     0.1334
  3. axis:    yes    0.000000    0.000000    4.813770    30     0.1605

  Lengths:   6.162793   6.162793   4.813770
  Angles:   90.000000  90.000000 120.000000

Effective grid spacing dv^(1/3) = 0.1489

     iter     time        total  log10-change:
                         energy   eigst   dens
iter:   1 11:15:11  -107.643341   -1.41
iter:   2 11:15:37  -107.624281   -2.36  -2.30
iter:   3 11:16:03  -107.602679c  -2.43  -2.39
iter:   4 11:16:28  -107.599756c  -3.47  -2.66
iter:   5 11:16:54  -107.596157c  -3.12  -2.70
iter:   6 11:17:19  -107.597562c  -3.18  -2.92
iter:   7 11:17:45  -107.595510c  -3.45  -2.99
iter:   8 11:18:11  -107.595246c  -4.02  -3.15
iter:   9 11:18:36  -107.595154c  -4.47  -3.39
iter:  10 11:19:02  -107.595069c  -5.04  -3.51
iter:  11 11:19:28  -107.595183c  -4.59  -3.56
iter:  12 11:19:54  -107.595047c  -5.22  -3.67
iter:  13 11:20:20  -107.595045c  -5.66  -3.89
iter:  14 11:20:46  -107.595089c  -5.91  -3.94
iter:  15 11:21:12  -107.595059c  -5.48  -4.09c
iter:  16 11:21:37  -107.595059c  -6.46  -4.19c
iter:  17 11:22:03  -107.595060c  -6.95  -4.41c
iter:  18 11:22:29  -107.595063c  -7.17  -4.46c
iter:  19 11:22:55  -107.595069c  -6.39  -4.51c
iter:  20 11:23:22  -107.595063c  -7.12  -4.62c
iter:  21 11:23:48  -107.595063c  -7.82c -4.83c

Converged after 21 iterations.

Dipole moment: (-1.370112, -5.871092, -4.065182) |e|*Ang

Energy contributions relative to reference atoms: (reference = -195011.959433)

Kinetic:       +197.710453
Potential:     -183.952665
External:        +0.000000
XC:            -122.339771
Entropy (-ST):   -0.245034
Local:           +1.109437
SIC:             +0.000000
--------------------------
Free energy:   -107.717580
Extrapolated:  -107.595063

Showing only first 2 kpts
 Kpt  Band  Eigenvalues  Occupancy
  0    62     10.41625    1.86237
  0    63     10.48596    1.74159
  0    64     11.12904    0.02148
  0    65     11.58836    0.00022

  1    62     10.42459    1.85130
  1    63     10.60378    1.34950
  1    64     11.13770    0.01972
  1    65     11.42517    0.00112


Fermi level: 10.67675

No gap
No difference between direct/indirect transitions

Forces in eV/Ang:
[...]
iter:   6 17:35:00  -114.171039c  -6.30  -4.58c
iter:   7 17:35:28  -114.171034c  -7.02  -4.55c
iter:   8 17:35:55  -114.171033c  -7.01  -4.79c
iter:   9 17:36:22  -114.171033c  -7.42c -4.96c

Converged after 9 iterations.

Dipole moment: (-7.374808, -18.263041, -10.502917) |e|*Ang

Energy contributions relative to reference atoms: (reference = -195011.959433)

Kinetic:       +190.265602
Potential:     -184.016993
External:        +0.000000
XC:            -121.509741
Entropy (-ST):   -0.234444
Local:           +1.207321
SIC:             +0.000000
--------------------------
Free energy:   -114.288255
Extrapolated:  -114.171033

Showing only first 2 kpts
 Kpt  Band  Eigenvalues  Occupancy
  0    62     10.01344    1.99917
  0    63     11.19455    0.03521
  0    64     11.43045    0.00338
  0    65     11.55160    0.00101

  1    62      9.96107    1.99951
  1    63     11.03043    0.16934
  1    64     11.15637    0.05117
  1    65     11.50832    0.00155


Fermi level: 10.79238

No gap
No difference between direct/indirect transitions

Forces in eV/Ang:
  0 Ti   -0.00571    0.00723   -0.00723
  1 Ti   -0.02150    0.00269    0.00524
  2 C    -0.00930    0.00481    0.00653
  3 Ti   -0.02245   -0.01812   -0.01637
  4 Ti    0.02068   -0.00313    0.00167
  5 C    -0.00282    0.00763   -0.00034
  6 Ti    0.00618   -0.01128    0.01665
  7 Ti    0.00035    0.00500   -0.00727
  8 C     0.01048   -0.01342    0.00344
  9 Ti    0.00363    0.00765    0.00866
 10 Ti    0.01098   -0.00059   -0.00231
 11 C     0.01855    0.00373   -0.01218
 12 C    -0.02469    0.01842    0.00086
 13 O     0.01143   -0.02302   -0.00650
 14 O     0.00425    0.01170    0.00917

System changes: positions 

Initializing position-dependent things.

Density initialized from wave functions
                                
                                
                                
                                
               O      O         
                                
              C                 
                                
                                
                                
                                
                                
                                
               Ti  C            
         Ti      Ti             
              C      C          
           Ti   C Ti            
             Ti     Ti          
                                
               Ti               
                                
                                
                                
                                

Positions:
   0 Ti     0.195330    0.210014    3.385225    ( 0.0000,  0.0000,  0.0000)
   1 Ti     1.736499   -0.722186    1.163025    ( 0.0000,  0.0000,  0.0000)
   2 C      1.734754    1.027307    2.240743    ( 0.0000,  0.0000,  0.0000)
   3 Ti     1.735981    2.722343    3.304292    ( 0.0000,  0.0000,  0.0000)
   4 Ti     3.233870    1.869736    1.007242    ( 0.0000,  0.0000,  0.0000)
   5 C      3.267209    3.744149    2.361568    ( 0.0000,  0.0000,  0.0000)
   6 Ti     1.734655   -2.557476    3.268658    ( 0.0000,  0.0000,  0.0000)
   7 Ti     3.315260   -3.468759    1.006696    ( 0.0000,  0.0000,  0.0000)
   8 C      3.284409   -1.593633    2.362310    ( 0.0000,  0.0000,  0.0000)
   9 Ti     3.275664    0.209839    3.385362    ( 0.0000,  0.0000,  0.0000)
  10 Ti     4.816377   -0.662910    1.204994    ( 0.0000,  0.0000,  0.0000)
  11 C      4.815604    1.074148    2.243654    ( 0.0000,  0.0000,  0.0000)
  12 C      1.736850    0.775197    9.411103    ( 0.0000,  0.0000,  0.0000)
  13 O      4.814301    2.936417    9.892485    ( 0.0000,  0.0000,  0.0000)
  14 O      1.731506    3.092159    9.896984    ( 0.0000,  0.0000,  0.0000)

Unit cell:
           periodic     x           y           z      points  spacing
  1. axis:    yes    3.081396   -5.337135    0.000000    40     0.1334
  2. axis:    yes    3.081396    5.337135    0.000000    40     0.1334
  3. axis:    yes    0.000000    0.000000    4.813770    30     0.1605

  Lengths:   6.162793   6.162793   4.813770
  Angles:   90.000000  90.000000 120.000000

Effective grid spacing dv^(1/3) = 0.1489

     iter     time        total  log10-change:
                         energy   eigst   dens
iter:   1 17:36:56  -114.171168   -4.24
iter:   2 17:37:23  -114.171135   -5.25  -3.69
iter:   3 17:37:50  -114.171110c  -5.18  -3.78
iter:   4 17:38:18  -114.171105c  -6.19  -4.08c
iter:   5 17:38:45  -114.171113c  -5.62  -4.13c
iter:   6 17:39:12  -114.171123c  -5.92  -4.39c
iter:   7 17:39:39  -114.171111c  -6.58  -4.31c
iter:   8 17:40:06  -114.171111c  -6.57  -4.57c
iter:   9 17:40:34  -114.171111c  -6.95  -4.76c
iter:  10 17:41:00  -114.171112c  -7.60c -4.92c

Converged after 10 iterations.

Dipole moment: (-7.396987, -18.210139, -10.495125) |e|*Ang

Energy contributions relative to reference atoms: (reference = -195011.959433)

Kinetic:       +190.243370
Potential:     -183.998646
External:        +0.000000
XC:            -121.506022
Entropy (-ST):   -0.234458
Local:           +1.207415
SIC:             +0.000000
--------------------------
Free energy:   -114.288341
Extrapolated:  -114.171112

Showing only first 2 kpts
 Kpt  Band  Eigenvalues  Occupancy
  0    62     10.01429    1.99916
  0    63     11.19528    0.03483
  0    64     11.43020    0.00338
  0    65     11.55072    0.00101

  1    62      9.96135    1.99951
  1    63     11.03045    0.16871
  1    64     11.15598    0.05117
  1    65     11.50863    0.00154


Fermi level: 10.79199

No gap
No difference between direct/indirect transitions

Forces in eV/Ang:
  0 Ti    0.00346    0.00274    0.00777
  1 Ti   -0.01223   -0.00244    0.00501
  2 C    -0.00028   -0.01073   -0.00534
  3 Ti   -0.01272   -0.00080    0.00382
  4 Ti    0.00405   -0.00099   -0.00340
  5 C    -0.00169    0.00032    0.00392
  6 Ti    0.00490    0.00217    0.01581
  7 Ti    0.00700    0.00588   -0.00952
  8 C     0.00028    0.00264    0.00501
  9 Ti   -0.00123   -0.00431    0.00013
 10 Ti    0.00147   -0.01579   -0.01039
 11 C     0.00949    0.00365   -0.00687
 12 C    -0.01977    0.01560    0.00804
 13 O     0.01331   -0.00841   -0.01322
 14 O     0.00553    0.00990   -0.00047

System changes: positions 

Initializing position-dependent things.

Density initialized from wave functions
                                
                                
                                
                                
               O      O         
                                
              C                 
                                
                                
                                
                                
                                
                                
               Ti  C            
         Ti      Ti             
              C      C          
           Ti   C Ti            
             Ti     Ti          
                                
               Ti               
                                
                                
                                
                                

Positions:
   0 Ti     0.195347    0.210112    3.385016    ( 0.0000,  0.0000,  0.0000)
   1 Ti     1.736230   -0.722368    1.162982    ( 0.0000,  0.0000,  0.0000)
   2 C      1.734833    1.027104    2.240423    ( 0.0000,  0.0000,  0.0000)
   3 Ti     1.735785    2.721963    3.304256    ( 0.0000,  0.0000,  0.0000)
   4 Ti     3.234219    1.869636    1.007084    ( 0.0000,  0.0000,  0.0000)
   5 C      3.267140    3.744145    2.361681    ( 0.0000,  0.0000,  0.0000)
   6 Ti     1.734721   -2.557506    3.268960    ( 0.0000,  0.0000,  0.0000)
   7 Ti     3.315664   -3.468513    1.006709    ( 0.0000,  0.0000,  0.0000)
   8 C      3.284521   -1.593664    2.362516    ( 0.0000,  0.0000,  0.0000)
   9 Ti     3.275389    0.209855    3.385357    ( 0.0000,  0.0000,  0.0000)
  10 Ti     4.816259   -0.662981    1.205234    ( 0.0000,  0.0000,  0.0000)
  11 C      4.815792    1.074309    2.243745    ( 0.0000,  0.0000,  0.0000)
  12 C      1.736170    0.775406    9.411170    ( 0.0000,  0.0000,  0.0000)
  13 O      4.815025    2.935905    9.892643    ( 0.0000,  0.0000,  0.0000)
  14 O      1.732028    3.092552    9.896776    ( 0.0000,  0.0000,  0.0000)

Unit cell:
           periodic     x           y           z      points  spacing
  1. axis:    yes    3.081396   -5.337135    0.000000    40     0.1334
  2. axis:    yes    3.081396    5.337135    0.000000    40     0.1334
  3. axis:    yes    0.000000    0.000000    4.813770    30     0.1605

  Lengths:   6.162793   6.162793   4.813770
  Angles:   90.000000  90.000000 120.000000

Effective grid spacing dv^(1/3) = 0.1489

     iter     time        total  log10-change:
                         energy   eigst   dens
iter:   1 17:41:35  -114.171137   -4.85
iter:   2 17:42:01  -114.171134   -5.82  -4.03c
iter:   3 17:42:29  -114.171134c  -6.01  -4.13c
iter:   4 17:42:56  -114.171133c  -6.81  -4.38c
iter:   5 17:43:23  -114.171136c  -6.30  -4.46c
iter:   6 17:43:50  -114.171134c  -7.09  -4.75c
iter:   7 17:44:18  -114.171131c  -7.09  -4.71c
iter:   8 17:44:45  -114.171133c  -7.95c -5.00c

Converged after 8 iterations.

Dipole moment: (-7.399302, -18.194646, -10.495983) |e|*Ang

Energy contributions relative to reference atoms: (reference = -195011.959433)

Kinetic:       +190.259837
Potential:     -184.012692
External:        +0.000000
XC:            -121.509381
Entropy (-ST):   -0.234507
Local:           +1.208356
SIC:             +0.000000
--------------------------
Free energy:   -114.288387
Extrapolated:  -114.171133

Showing only first 2 kpts
 Kpt  Band  Eigenvalues  Occupancy
  0    62     10.01519    1.99915
  0    63     11.19574    0.03467
  0    64     11.43012    0.00338
  0    65     11.55102    0.00101

  1    62      9.96168    1.99950
  1    63     11.03021    0.16909
  1    64     11.15590    0.05121
  1    65     11.50902    0.00154


Fermi level: 10.79199

No gap
No difference between direct/indirect transitions

Forces in eV/Ang:
  0 Ti    0.00150    0.00015    0.00810
  1 Ti   -0.01008   -0.00473    0.00262
  2 C     0.00065   -0.00751   -0.00195
  3 Ti   -0.00621   -0.00017    0.00161
  4 Ti    0.00227   -0.00015   -0.00469
  5 C    -0.00091   -0.00233    0.00355
  6 Ti    0.00063    0.00227    0.00625
  7 Ti    0.00332    0.00313   -0.00335
  8 C    -0.00127    0.00148    0.00236
  9 Ti   -0.00150    0.00075    0.00359
 10 Ti    0.00278   -0.01171   -0.00889
 11 C     0.00729    0.00069   -0.00857
 12 C    -0.01051    0.01164    0.00769
 13 O     0.00917   -0.00192   -0.00911
 14 O     0.00578    0.00759   -0.00084

System changes: positions 

Initializing position-dependent things.

Density initialized from wave functions
                                
                                
                                
                                
               O      O         
                                
              C                 
                                
                                
                                
                                
                                
                                
               Ti  C            
         Ti      Ti             
              C      C          
           Ti   C Ti            
             Ti     Ti          
                                
               Ti               
                                
                                
                                
                                

Positions:
   0 Ti     0.195365    0.210183    3.385072    ( 0.0000,  0.0000,  0.0000)
   1 Ti     1.735649   -0.722882    1.163063    ( 0.0000,  0.0000,  0.0000)
   2 C      1.734914    1.026685    2.240047    ( 0.0000,  0.0000,  0.0000)
   3 Ti     1.735677    2.721219    3.304191    ( 0.0000,  0.0000,  0.0000)
   4 Ti     3.234799    1.869466    1.006592    ( 0.0000,  0.0000,  0.0000)
   5 C      3.266934    3.744176    2.361806    ( 0.0000,  0.0000,  0.0000)
   6 Ti     1.734758   -2.557515    3.269293    ( 0.0000,  0.0000,  0.0000)
   7 Ti     3.316264   -3.468157    1.006811    ( 0.0000,  0.0000,  0.0000)
   8 C      3.284726   -1.593790    2.362880    ( 0.0000,  0.0000,  0.0000)
   9 Ti     3.274889    0.210084    3.385452    ( 0.0000,  0.0000,  0.0000)
  10 Ti     4.816040   -0.663132    1.205472    ( 0.0000,  0.0000,  0.0000)
  11 C      4.816183    1.074488    2.243698    ( 0.0000,  0.0000,  0.0000)
  12 C      1.735258    0.775826    9.411637    ( 0.0000,  0.0000,  0.0000)
  13 O      4.816220    2.935238    9.892610    ( 0.0000,  0.0000,  0.0000)
  14 O      1.732894    3.093425    9.896263    ( 0.0000,  0.0000,  0.0000)

Unit cell:
           periodic     x           y           z      points  spacing
  1. axis:    yes    3.081396   -5.337135    0.000000    40     0.1334
  2. axis:    yes    3.081396    5.337135    0.000000    40     0.1334
  3. axis:    yes    0.000000    0.000000    4.813770    30     0.1605

  Lengths:   6.162793   6.162793   4.813770
  Angles:   90.000000  90.000000 120.000000

Effective grid spacing dv^(1/3) = 0.1489

     iter     time        total  log10-change:
                         energy   eigst   dens
iter:   1 17:45:19  -114.171181   -4.38
iter:   2 17:45:46  -114.171161   -5.35  -3.78
iter:   3 17:46:13  -114.171151c  -5.50  -3.89
iter:   4 17:46:41  -114.171147c  -6.33  -4.16c
iter:   5 17:47:08  -114.171149c  -5.83  -4.23c
iter:   6 17:47:35  -114.171148c  -6.57  -4.52c
iter:   7 17:48:02  -114.171142c  -6.44  -4.47c
iter:   8 17:48:30  -114.171146c  -7.37  -4.79c
iter:   9 17:48:57  -114.171146c  -7.59c -4.82c

Converged after 9 iterations.

Dipole moment: (-7.403812, -18.165714, -10.501951) |e|*Ang

Energy contributions relative to reference atoms: (reference = -195011.959433)

Kinetic:       +190.281194
Potential:     -184.030362
External:        +0.000000
XC:            -121.512912
Entropy (-ST):   -0.234561
Local:           +1.208214
SIC:             +0.000000
--------------------------
Free energy:   -114.288427
Extrapolated:  -114.171146

Showing only first 2 kpts
 Kpt  Band  Eigenvalues  Occupancy
  0    62     10.01683    1.99914
  0    63     11.19649    0.03442
  0    64     11.43025    0.00338
  0    65     11.55158    0.00100

  1    62      9.96221    1.99950
  1    63     11.02981    0.16973
  1    64     11.15567    0.05133
  1    65     11.50944    0.00153


Fermi level: 10.79201

No gap
No difference between direct/indirect transitions

Forces in eV/Ang:
  0 Ti   -0.00160   -0.00106    0.00592
  1 Ti   -0.00319   -0.00092    0.00044
  2 C     0.00328   -0.00512   -0.00072
  3 Ti   -0.00271    0.00407   -0.00136
  4 Ti   -0.00352    0.00025   -0.00078
  5 C     0.00134   -0.00607    0.00316
  6 Ti   -0.00134   -0.00005   -0.00731
  7 Ti    0.00238    0.00056   -0.00025
  8 C    -0.00416    0.00414   -0.00060
  9 Ti    0.00019   -0.00036    0.00111
 10 Ti    0.00281   -0.00462   -0.00089
 11 C     0.00137   -0.00270   -0.00569
 12 C    -0.00178    0.00520    0.00720
 13 O     0.00340    0.00650    0.00033
 14 O     0.00520   -0.00105   -0.00173

Writing to /home/intvengiel/workshop-physics/system/calculator/CO2-PBEU-1-1-calculator.gpw (mode='all')

Timing:                                      incl.     excl.
-------------------------------------------------------------------
Density initialized from wave functions:    83.534    83.533   0.2% |
 Symmetrize density:                         0.001     0.001   0.0% |
Forces:                                    207.682   207.682   0.6% |
Hamiltonian:                                18.848     0.056   0.0% |
 Atomic:                                    11.948     0.306   0.0% |
  XC Correction:                            11.642    11.642   0.0% |
 Calculate atomic Hamiltonians:              2.722     2.722   0.0% |
 Communicate:                                0.000     0.000   0.0% |
 Initialize Hamiltonian:                     0.000     0.000   0.0% |
 Poisson:                                    0.063     0.063   0.0% |
 XC 3D grid:                                 4.059     4.059   0.0% |
LCAO initialization:                       177.388     0.077   0.0% |
 LCAO eigensolver:                           3.851     0.005   0.0% |
  Calculate projections:                     0.027     0.027   0.0% |
  DenseAtomicCorrection:                     0.144     0.144   0.0% |
  Distribute overlap matrix:                 0.006     0.006   0.0% |
  Orbital Layouts:                           0.583     0.583   0.0% |
  Potential matrix:                          2.774     2.774   0.0% |
  Sum over cells:                            0.311     0.311   0.0% |
 LCAO to grid:                             171.067   171.067   0.5% |
 Set positions (LCAO WFS):                   2.394     0.267   0.0% |
  Basic WFS set positions:                   0.000     0.000   0.0% |
  Basis functions set positions:             0.000     0.000   0.0% |
  P tci:                                     1.534     1.534   0.0% |
  ST tci:                                    0.582     0.582   0.0% |
  mktci:                                     0.010     0.010   0.0% |
PWDescriptor:                                0.259     0.259   0.0% |
Redistribute:                                1.284     1.284   0.0% |
SCF-cycle:                               33042.258     7.120   0.0% |
 Davidson:                               30900.266  5185.057  15.4% |-----|
  Apply H:                                4895.475  4719.695  14.0% |-----|
   HMM T:                                  175.780   175.780   0.5% |
  Subspace diag:                          6044.768    10.501   0.0% |
   calc_h_matrix:                         5192.405   310.518   0.9% |
    Apply H:                              4881.888  4698.899  14.0% |-----|
     HMM T:                                182.989   182.989   0.5% |
   diagonalize:                            254.042   254.042   0.8% |
   rotate_psi:                             587.821   587.821   1.7% ||
  calc. matrices:                        12268.534  2481.840   7.4% |--|
   Apply H:                               9786.694  9427.055  28.0% |----------|
    HMM T:                                 359.638   359.638   1.1% |
  diagonalize:                            1429.853  1429.853   4.3% |-|
  rotate_psi:                             1076.578  1076.578   3.2% ||
 Density:                                 1684.436     0.017   0.0% |
  Atomic density matrices:                  15.554    15.554   0.0% |
  Mix:                                      77.927    77.927   0.2% |
  Multipole moments:                         0.161     0.161   0.0% |
  Pseudo density:                         1590.778  1590.762   4.7% |-|
   Symmetrize density:                       0.016     0.016   0.0% |
 Hamiltonian:                              352.612     1.141   0.0% |
  Atomic:                                  227.601     5.656   0.0% |
   XC Correction:                          221.945   221.945   0.7% |
  Calculate atomic Hamiltonians:            49.099    49.099   0.1% |
  Communicate:                               0.007     0.007   0.0% |
  Poisson:                                   1.239     1.239   0.0% |
  XC 3D grid:                               73.525    73.525   0.2% |
 Orthonormalize:                            97.824     0.490   0.0% |
  calc_s_matrix:                            24.193    24.193   0.1% |
  inverse-cholesky:                          4.508     4.508   0.0% |
  projections:                              50.696    50.696   0.2% |
  rotate_psi_s:                             17.937    17.937   0.1% |
Set symmetry:                                0.003     0.003   0.0% |
Other:                                     107.830   107.830   0.3% |
-------------------------------------------------------------------
Total:                                             33639.087 100.0%

Memory usage: 1.29 GiB
Date: Thu Jan 30 17:49:02 2025
