
  ___ ___ ___ _ _ _  
 |   |   |_  | | | | 
 | | | | | . | | | | 
 |__ |  _|___|_____|  24.6.0
 |___|_|             

User:   intvengiel@DESKTOP-CUQAD65
Date:   Thu Jan 30 18:04:06 2025
Arch:   x86_64
Pid:    2394778
CWD:    /home/intvengiel/workshop-physics
Python: 3.12.8
gpaw:   /home/intvengiel/miniconda3/envs/gpaw-env/lib/python3.12/site-packages/gpaw
_gpaw:  /home/intvengiel/miniconda3/envs/gpaw-env/lib/python3.12/site-packages/
        _gpaw.cpython-312-x86_64-linux-gnu.so
ase:    /home/intvengiel/miniconda3/envs/gpaw-env/lib/python3.12/site-packages/ase (version 3.24.0)
numpy:  /home/intvengiel/miniconda3/envs/gpaw-env/lib/python3.12/site-packages/numpy (version 1.26.4)
scipy:  /home/intvengiel/miniconda3/envs/gpaw-env/lib/python3.12/site-packages/scipy (version 1.15.1)
libxc:  6.2.2
units:  Angstrom and eV
cores: 1
OpenMP: True
OMP_NUM_THREADS: 1

Input parameters:
  kpts: [5 5 5]
  mode: {ecut: 700.0,
         name: pw}
  occupations: {fixmagmom: False,
                name: fermi-dirac,
                width: 0.1}
  setups: {Ti: :d,1.6}
  xc: PBE

System changes: positions, numbers, cell, pbc, initial_charges, initial_magmoms 

Initialize ...

species:
  Ti:
    name: Titanium
    id: d282db07e62ae71292040bf25b25ccdd
    Z: 22.0
    valence: 12
    core: 10
    charge: 0.0
    Hubbard: {U: 1.6,  # eV
              l: 2,
              scale: True}
    file: /home/intvengiel/miniconda3/envs/gpaw-env/share/gpaw/Ti.PBE.gz
    compensation charges: {type: gauss,
                           rc: 0.38,
                           lmax: 2}
    cutoffs: {filter: 2.23,
              core: 1.02}
    projectors:
      #              energy  rcut
      - 3s(2.00)   -62.623   1.270
      - 4s(2.00)    -4.466   1.270
      - 3p(6.00)   -38.862   1.058
      - 4p(0.00)    -1.466   1.058
      - 3d(2.00)    -4.258   1.058
      -  d          22.953   1.058
  
    # Using partial waves for Ti as LCAO basis

  C:
    name: Carbon
    id: 4aa54d4b901d75f77cc0ea3eec22967b
    Z: 6.0
    valence: 4
    core: 2
    charge: 0.0
    file: /home/intvengiel/miniconda3/envs/gpaw-env/share/gpaw/C.PBE.gz
    compensation charges: {type: gauss,
                           rc: 0.20,
                           lmax: 2}
    cutoffs: {filter: 1.14,
              core: 1.14}
    projectors:
      #              energy  rcut
      - 2s(2.00)   -13.751   0.635
      - 2p(2.00)    -5.284   0.635
      -  s          13.461   0.635
      -  p          21.927   0.635
      -  d           0.000   0.635
  
    # Using partial waves for C as LCAO basis

  N:
    name: Nitrogen
    id: f7500608b86eaa90eef8b1d9a670dc53
    Z: 7.0
    valence: 5
    core: 2
    charge: 0.0
    file: /home/intvengiel/miniconda3/envs/gpaw-env/share/gpaw/N.PBE.gz
    compensation charges: {type: gauss,
                           rc: 0.18,
                           lmax: 2}
    cutoffs: {filter: 1.11,
              core: 0.96}
    projectors:
      #              energy  rcut
      - 2s(2.00)   -18.583   0.603
      - 2p(3.00)    -7.089   0.529
      -  s           8.629   0.603
      -  p          20.123   0.529
      -  d           0.000   0.577
  
    # Using partial waves for N as LCAO basis

  O:
    name: Oxygen
    id: 32ecd46bf208036f09c70b0ec9a88b78
    Z: 8.0
    valence: 6
    core: 2
    charge: 0.0
    file: /home/intvengiel/miniconda3/envs/gpaw-env/share/gpaw/O.PBE.gz
    compensation charges: {type: gauss,
                           rc: 0.21,
                           lmax: 2}
    cutoffs: {filter: 1.17,
              core: 0.83}
    projectors:
      #              energy  rcut
      - 2s(2.00)   -23.961   0.688
      - 2p(4.00)    -9.029   0.598
      -  s           3.251   0.688
      -  p          18.182   0.598
      -  d           0.000   0.619
  
    # Using partial waves for O as LCAO basis

Reference energy: -195466.052822  # eV

Spin-paired calculation

Convergence criteria:
 Maximum [total energy] change in last 3 cyles: 0.0005 eV / valence electron
 Maximum integral of absolute [dens]ity change: 0.0001 electrons / valence electron
 Maximum integral of absolute [eigenst]ate change: 4e-08 eV^2 / valence electron
 Maximum number of scf [iter]ations: 333
 (Square brackets indicate name in SCF output, whereas a 'c' in
 the SCF output indicates the quantity has converged.)

Symmetries present (total): 1

  ( 1  0  0)
  ( 0  1  0)
  ( 0  0  1)

125 k-points: 5 x 5 x 5 Monkhorst-Pack grid
63 k-points in the irreducible part of the Brillouin zone
       k-points in crystal coordinates                weights
   0:     0.00000000    0.00000000    0.00000000          1/125
   1:     0.00000000    0.00000000    0.20000000          2/125
   2:     0.00000000    0.00000000    0.40000000          2/125
   3:     0.00000000    0.20000000   -0.40000000          2/125
   4:     0.00000000    0.20000000   -0.20000000          2/125
   5:     0.00000000    0.20000000    0.00000000          2/125
   6:     0.00000000    0.20000000    0.20000000          2/125
   7:     0.00000000    0.20000000    0.40000000          2/125
   8:     0.00000000    0.40000000   -0.40000000          2/125
   9:     0.00000000    0.40000000   -0.20000000          2/125
          ...
  62:     0.40000000    0.40000000    0.40000000          2/125

Wave functions: Plane wave expansion
  Cutoff energy: 700.000 eV
  Number of coefficients (min, max): 6647, 6679
  Pulay-stress correction: 0.000000 eV/Ang^3 (de/decut=0.000000)
  Using FFTW library
  ScaLapack parameters: grid=1x1, blocksize=None
  Wavefunction extrapolation:
    Improved wavefunction reuse through dual PAW basis 

Occupation numbers: Fermi-Dirac:
  width: 0.1000  # eV
 

Eigensolver
   Davidson(niter=2) 

Densities:
  Coarse grid: 40*40*30 grid
  Fine grid: 80*80*60 grid
  Total Charge: 0.000000 

Density mixing:
  Method: separate
  Backend: pulay
  Linear mixing parameter: 0.05
  old densities: 5
  Damping of long wavelength oscillations: 50 

Hamiltonian:
  XC and Coulomb potentials evaluated on a 80*80*60 grid
  Using the PBE Exchange-Correlation functional
  External potential:
    NoExternalPotential
 

XC parameters: PBE with 2 nearest neighbor stencil

Memory estimate:
  Process memory now: 204.21 MiB
  Calculator: 691.39 MiB
    Density: 25.63 MiB
      Arrays: 9.52 MiB
      Localized functions: 12.44 MiB
      Mixer: 3.66 MiB
    Hamiltonian: 6.58 MiB
      Arrays: 6.23 MiB
      XC: 0.00 MiB
      Poisson: 0.00 MiB
      vbar: 0.36 MiB
    Wavefunctions: 659.18 MiB
      Arrays psit_nG: 526.48 MiB
      Eigensolver: 9.89 MiB
      Projections: 18.52 MiB
      Projectors: 96.02 MiB
      PW-descriptor: 8.25 MiB

Total number of cores used: 1

Number of atoms: 15
Number of atomic orbitals: 132
Number of bands in calculation: 82
Number of valence electrons: 129
Bands to converge: occupied

... initialized

Initializing position-dependent things.

Density initialized from atomic densities
Creating initial wave functions:
  82 bands from LCAO basis set

                                
                                
                                
                                
                    N           
                 O   O          
                                
                                
                                
                                
                                
               Ti               
                   C            
         Ti      Ti             
              C      C          
           Ti     Ti            
                C               
             Ti     Ti          
               Ti               
                                
                                
                                
                                

Positions:
   0 Ti     0.000000    0.000000    3.586778    ( 0.0000,  0.0000,  0.0000)
   1 Ti     1.540698   -0.889523    1.226991    ( 0.0000,  0.0000,  0.0000)
   2 C      1.540698    0.889523    2.406886    ( 0.0000,  0.0000,  0.0000)
   3 Ti     1.540698    2.668568    3.586778    ( 0.0000,  0.0000,  0.0000)
   4 Ti     3.081396    1.779045    1.226991    ( 0.0000,  0.0000,  0.0000)
   5 C      3.081396    3.558090    2.406886    ( 0.0000,  0.0000,  0.0000)
   6 Ti     1.540698   -2.668568    3.586778    ( 0.0000,  0.0000,  0.0000)
   7 Ti     3.081396   -3.558090    1.226991    ( 0.0000,  0.0000,  0.0000)
   8 C      3.081396   -1.779045    2.406886    ( 0.0000,  0.0000,  0.0000)
   9 Ti     3.081396   -0.000000    3.586778    ( 0.0000,  0.0000,  0.0000)
  10 Ti     4.622095   -0.889523    1.226991    ( 0.0000,  0.0000,  0.0000)
  11 C      4.622095    0.889523    2.406886    ( 0.0000,  0.0000,  0.0000)
  12 N      3.540698    2.889523    9.086778    ( 0.0000,  0.0000,  0.0000)
  13 O      4.412653    2.058015    9.086778    ( 0.0000,  0.0000,  0.0000)
  14 O      2.669034    2.058292    9.086778    ( 0.0000,  0.0000,  0.0000)

Unit cell:
           periodic     x           y           z      points  spacing
  1. axis:    yes    3.081396   -5.337135    0.000000    40     0.1334
  2. axis:    yes    3.081396    5.337135    0.000000    40     0.1334
  3. axis:    yes    0.000000    0.000000    4.813770    30     0.1605

  Lengths:   6.162793   6.162793   4.813770
  Angles:   90.000000  90.000000 120.000000

Effective grid spacing dv^(1/3) = 0.1489

     iter     time        total  log10-change:
                         energy   eigst   dens
iter:   1 18:07:42   -45.745381
iter:   2 18:08:11   -38.204490   -0.27  -0.96
iter:   3 18:08:40   -27.628858   +0.41  -1.02
iter:   4 18:09:09   -27.615732   -0.14  -1.29
iter:   5 18:09:38   -27.801380   -0.75  -1.39
iter:   6 18:10:07   -29.445098   -0.26  -1.49
iter:   7 18:10:35   -28.662602   -1.26  -1.70
iter:   8 18:11:04   -28.449372   -1.30  -1.87
iter:   9 18:11:33   -28.423959   -1.81  -1.99
iter:  10 18:12:01   -28.441524c  -1.60  -2.11
iter:  11 18:12:32   -28.443816c  -2.14  -2.22
iter:  12 18:13:01   -28.498800c  -1.64  -2.33
iter:  13 18:13:30   -28.449581c  -2.08  -2.31
iter:  14 18:13:58   -28.450280c  -2.79  -2.58
iter:  15 18:14:27   -28.470254c  -2.06  -2.61
iter:  16 18:14:57   -28.449914c  -2.71  -2.59
iter:  17 18:15:26   -28.449753c  -3.03  -2.99
iter:  18 18:15:54   -28.449765c  -3.65  -3.00
iter:  19 18:16:22   -28.451955c  -3.10  -3.16
iter:  20 18:16:51   -28.450262c  -3.42  -3.10
iter:  21 18:17:19   -28.450563c  -3.79  -3.45
iter:  22 18:17:48   -28.450103c  -4.27  -3.37
iter:  23 18:18:15   -28.450109c  -4.88  -3.66
iter:  24 18:18:43   -28.450161c  -4.84  -3.69
iter:  25 18:19:09   -28.450181c  -4.59  -3.73
iter:  26 18:19:37   -28.450178c  -5.39  -3.79
iter:  27 18:20:04   -28.450201c  -5.12  -3.92
iter:  28 18:20:31   -28.450181c  -5.31  -3.84
iter:  29 18:20:58   -28.450180c  -5.95  -4.09c
iter:  30 18:21:25   -28.450172c  -6.04  -4.15c
iter:  31 18:21:52   -28.450175c  -6.01  -4.22c
iter:  32 18:22:19   -28.450175c  -6.28  -4.23c
iter:  33 18:22:46   -28.450195c  -5.68  -4.36c
iter:  34 18:23:13   -28.450195c  -6.02  -4.29c
iter:  35 18:23:40   -28.450196c  -6.80  -4.61c
iter:  36 18:24:08   -28.450202c  -6.58  -4.63c
iter:  37 18:24:36   -28.450210c  -6.10  -4.59c
iter:  38 18:25:03   -28.450208c  -7.44c -4.69c

Converged after 38 iterations.

Dipole moment: (2.343758, -3.367480, 6.974330) |e|*Ang

Energy contributions relative to reference atoms: (reference = -195466.052822)

Kinetic:       +480.173265
Potential:     -348.990365
External:        +0.000000
XC:            -157.272298
Entropy (-ST):   -0.263188
Local:           -2.229215
SIC:             +0.000000
--------------------------
Free energy:    -28.581802
Extrapolated:   -28.450208

Showing only first 2 kpts
 Kpt  Band  Eigenvalues  Occupancy
  0    62     10.12264    1.99443
  0    63     10.21432    1.98612
  0    64     10.74646    0.82305
  0    65     10.86552    0.35068

  1    62     10.20446    1.98742
  1    63     10.32358    1.95918
  1    64     10.73246    0.89161
  1    65     10.83711    0.44053


Fermi level: 10.71069

No gap
No difference between direct/indirect transitions

Forces in eV/Ang:
  0 Ti    0.01005   -0.98289   -0.76243
  1 Ti   -0.15225    0.31962    1.22318
  2 C    -0.62141   -0.54893   -0.88385
  3 Ti  -21.98252   10.71922  -12.48051
  4 Ti   -0.58624   -1.59342    6.49032
  5 C    -1.28528    1.20927   -3.32178
  6 Ti   93.27089  150.44036 -198.42013
  7 Ti    0.32820   -0.15247    1.54251
  8 C     0.30629    1.29811   -1.97676
  9 Ti   -0.65736   -1.21607   -0.99757
 10 Ti   -0.48653    0.28784    1.06076
 11 C     0.33196   -1.62648   -1.83329
 12 N   -51.50956   36.87568   22.53210
 13 O   -24.07377 -178.14515  176.30607
 14 O     7.10700  -16.88159   11.52040

System changes: positions 

Initializing position-dependent things.

Density initialized from wave functions
                                
                                
                                
                                
                    N           
                 O   O          
                                
                                
                                
                                
                                
               Ti               
                   C            
         Ti      Ti             
              C      C          
            Ti    Ti            
                C               
             Ti     Ti          
               Ti               
                                
                                
                                
                                

Positions:
   0 Ti     0.000008   -0.000739    3.586205    ( 0.0000,  0.0000,  0.0000)
   1 Ti     1.540584   -0.889282    1.227911    ( 0.0000,  0.0000,  0.0000)
   2 C      1.540231    0.889110    2.406221    ( 0.0000,  0.0000,  0.0000)
   3 Ti     1.524164    2.676630    3.577391    ( 0.0000,  0.0000,  0.0000)
   4 Ti     3.080955    1.777847    1.231873    ( 0.0000,  0.0000,  0.0000)
   5 C      3.080430    3.559000    2.404388    ( 0.0000,  0.0000,  0.0000)
   6 Ti     1.610853   -2.555412    3.437533    ( 0.0000,  0.0000,  0.0000)
   7 Ti     3.081643   -3.558205    1.228151    ( 0.0000,  0.0000,  0.0000)
   8 C      3.081627   -1.778069    2.405399    ( 0.0000,  0.0000,  0.0000)
   9 Ti     3.080902   -0.000915    3.586028    ( 0.0000,  0.0000,  0.0000)
  10 Ti     4.621729   -0.889306    1.227789    ( 0.0000,  0.0000,  0.0000)
  11 C      4.622344    0.888299    2.405507    ( 0.0000,  0.0000,  0.0000)
  12 N      3.501954    2.917259    9.103726    ( 0.0000,  0.0000,  0.0000)
  13 O      4.394545    1.924020    9.219389    ( 0.0000,  0.0000,  0.0000)
  14 O      2.674380    2.045594    9.095443    ( 0.0000,  0.0000,  0.0000)

Unit cell:
           periodic     x           y           z      points  spacing
  1. axis:    yes    3.081396   -5.337135    0.000000    40     0.1334
  2. axis:    yes    3.081396    5.337135    0.000000    40     0.1334
  3. axis:    yes    0.000000    0.000000    4.813770    30     0.1605

  Lengths:   6.162793   6.162793   4.813770
  Angles:   90.000000  90.000000 120.000000

Effective grid spacing dv^(1/3) = 0.1489

     iter     time        total  log10-change:
                         energy   eigst   dens
iter:   1 18:25:37  -108.640325   +1.18
iter:   2 18:26:03  -102.163613   +0.02  -1.24
iter:   3 18:26:32   -93.325292   +0.72  -1.29
iter:   4 18:26:58   -85.094831   -0.13  -1.29
iter:   5 18:27:26   -85.191104   -0.93  -1.65
iter:   6 18:27:52   -89.402199   +0.25  -1.69
iter:   7 18:28:19   -86.523949   -1.05  -1.56
iter:   8 18:28:46   -84.304897   -0.95  -1.66
iter:   9 18:29:14   -83.770716   -1.03  -1.82
iter:  10 18:29:51   -83.399359   -1.06  -1.98
iter:  11 18:30:19   -83.343293   -1.34  -2.21
iter:  12 18:30:47   -83.351940c  -1.83  -2.37
iter:  13 18:31:14   -83.335045c  -2.35  -2.48
iter:  14 18:31:41   -83.336004c  -2.84  -2.68
iter:  15 18:32:08   -83.336306c  -3.40  -2.72
iter:  16 18:32:36   -83.342353c  -2.79  -2.76
iter:  17 18:33:03   -83.339344c  -3.58  -2.96
iter:  18 18:33:30   -83.339594c  -3.86  -3.06
iter:  19 18:33:57   -83.339841c  -4.22  -3.25
iter:  20 18:34:24   -83.339663c  -4.12  -3.38
iter:  21 18:34:56   -83.339687c  -4.81  -3.58
iter:  22 18:35:25   -83.339647c  -5.39  -3.64
iter:  23 18:35:52   -83.339730c  -4.62  -3.73
iter:  24 18:36:19   -83.339677c  -5.12  -3.81
iter:  25 18:36:46   -83.339682c  -5.70  -4.00
iter:  26 18:37:14   -83.339692c  -5.64  -4.11c
iter:  27 18:37:41   -83.339683c  -5.99  -4.26c
iter:  28 18:38:08   -83.339676c  -6.52  -4.44c
iter:  29 18:38:35   -83.339675c  -6.67  -4.51c
iter:  30 18:39:02   -83.339681c  -6.65  -4.57c
iter:  31 18:39:29   -83.339682c  -7.22  -4.76c
iter:  32 18:39:56   -83.339683c  -7.75c -4.91c

Converged after 32 iterations.

Dipole moment: (-0.014235, -8.464982, 8.502042) |e|*Ang

Energy contributions relative to reference atoms: (reference = -195466.052822)

Kinetic:       +325.167508
Potential:     -270.185631
External:        +0.000000
XC:            -138.471827
Entropy (-ST):   -0.250138
Local:           +0.275336
SIC:             +0.000000
--------------------------
Free energy:    -83.464752
Extrapolated:   -83.339683

Showing only first 2 kpts
 Kpt  Band  Eigenvalues  Occupancy
  0    62     10.21839    1.99061
  0    63     10.56374    1.74050
  0    64     10.90107    0.37383
  0    65     11.26880    0.01156

  1    62     10.25355    1.98668
  1    63     10.58844    1.67943
  1    64     10.83536    0.61448
  1    65     11.11865    0.05087


Fermi level: 10.75405

No gap
No difference between direct/indirect transitions

Forces in eV/Ang:
  0 Ti   -0.03941   -0.42072   -0.68017
  1 Ti   -0.07764    0.82966    0.32365
  2 C    -0.65896   -0.50886   -0.84588
  3 Ti  -18.74685    8.66587  -10.90664
  4 Ti    0.00793   -1.23519    5.06795
  5 C    -1.34071    1.23172   -3.07476
  6 Ti   29.12178   21.91564  -41.86279
  7 Ti    0.06203   -0.25956    0.44455
  8 C     2.01999    2.24757   -3.09954
  9 Ti   -0.39012   -0.61568   -0.85964
 10 Ti   -0.43368    0.17510    0.95601
 11 C     0.47188   -1.30439   -2.11374
 12 N   -17.60700   16.76747   15.28018
 13 O     6.65112  -32.87237   33.12425
 14 O     0.95261  -14.62017    8.26072

System changes: positions 

Initializing position-dependent things.

Density initialized from wave functions
                                
                                
                                
                                
                    N           
                 O    O         
                                
                                
                                
                                
                                
              Ti                
                   C            
         Ti      Ti             
              C      C          
            Ti    Ti            
                C               
             Ti     Ti          
               Ti               
                                
                                
                                
                                

Positions:
   0 Ti    -0.000444   -0.003354    3.580306    ( 0.0000,  0.0000,  0.0000)
   1 Ti     1.540042   -0.880851    1.228977    ( 0.0000,  0.0000,  0.0000)
   2 C      1.534278    0.884653    2.398755    ( 0.0000,  0.0000,  0.0000)
   3 Ti     1.363533    2.749755    3.483314    ( 0.0000,  0.0000,  0.0000)
   4 Ti     3.082228    1.767556    1.274189    ( 0.0000,  0.0000,  0.0000)
   5 C      3.068361    3.570029    2.377468    ( 0.0000,  0.0000,  0.0000)
   6 Ti     1.740740   -2.620058    3.381024    ( 0.0000,  0.0000,  0.0000)
   7 Ti     3.081658   -3.560736    1.229894    ( 0.0000,  0.0000,  0.0000)
   8 C      3.103108   -1.756104    2.375487    ( 0.0000,  0.0000,  0.0000)
   9 Ti     3.077964   -0.005190    3.578641    ( 0.0000,  0.0000,  0.0000)
  10 Ti     4.617968   -0.887973    1.236102    ( 0.0000,  0.0000,  0.0000)
  11 C      4.626835    0.877319    2.386090    ( 0.0000,  0.0000,  0.0000)
  12 N      3.413546    3.026095    9.225315    ( 0.0000,  0.0000,  0.0000)
  13 O      4.516033    1.924849    9.225038    ( 0.0000,  0.0000,  0.0000)
  14 O      2.670421    1.919792    9.162514    ( 0.0000,  0.0000,  0.0000)

Unit cell:
           periodic     x           y           z      points  spacing
  1. axis:    yes    3.081396   -5.337135    0.000000    40     0.1334
  2. axis:    yes    3.081396    5.337135    0.000000    40     0.1334
  3. axis:    yes    0.000000    0.000000    4.813770    30     0.1605

  Lengths:   6.162793   6.162793   4.813770
  Angles:   90.000000  90.000000 120.000000

Effective grid spacing dv^(1/3) = 0.1489

     iter     time        total  log10-change:
                         energy   eigst   dens
iter:   1 18:40:30  -100.942266   +0.66
iter:   2 18:40:57   -99.405188   -0.29  -1.41
iter:   3 18:41:23   -95.788828   -0.66  -1.47
iter:   4 18:41:50   -95.500292   -1.31  -1.71
iter:   5 18:42:17   -94.965717   -0.76  -1.79
iter:   6 18:42:44   -95.131693   -0.99  -2.01
iter:   7 18:43:10   -94.940143   -1.50  -2.06
iter:   8 18:43:37   -94.896273   -2.47  -2.20
iter:   9 18:44:05   -94.887656c  -2.40  -2.36
iter:  10 18:44:32   -94.889216c  -2.18  -2.51
iter:  11 18:44:59   -94.880101c  -3.02  -2.57
iter:  12 18:45:26   -94.879154c  -3.55  -2.70
iter:  13 18:45:53   -94.879136c  -3.51  -2.81
iter:  14 18:46:20   -94.879739c  -3.63  -2.98
iter:  15 18:46:46   -94.879608c  -3.68  -3.05
iter:  16 18:47:13   -94.879724c  -4.30  -3.24
iter:  17 18:47:40   -94.879734c  -4.57  -3.45
iter:  18 18:48:07   -94.879706c  -5.10  -3.52
iter:  19 18:48:34   -94.879745c  -5.17  -3.64
iter:  20 18:49:00   -94.879748c  -5.36  -3.83
iter:  21 18:49:27   -94.879746c  -5.80  -3.92
iter:  22 18:49:54   -94.879752c  -6.14  -4.00
iter:  23 18:50:21   -94.879742c  -6.07  -4.10c
iter:  24 18:50:49   -94.879726c  -6.16  -4.24c
iter:  25 18:51:16   -94.879723c  -6.53  -4.41c
iter:  26 18:51:43   -94.879722c  -6.91  -4.60c
iter:  27 18:52:09   -94.879724c  -7.02  -4.67c
iter:  28 18:52:36   -94.879723c  -7.26  -4.88c
iter:  29 18:53:03   -94.879722c  -8.15c -4.99c

Converged after 29 iterations.

Dipole moment: (2.223812, -13.690918, 10.554675) |e|*Ang

Energy contributions relative to reference atoms: (reference = -195466.052822)

Kinetic:       +261.023477
Potential:     -226.956221
External:        +0.000000
XC:            -129.454334
Entropy (-ST):   -0.242633
Local:           +0.628673
SIC:             +0.000000
--------------------------
Free energy:    -95.001038
Extrapolated:   -94.879722

Showing only first 2 kpts
 Kpt  Band  Eigenvalues  Occupancy
  0    62     10.11005    1.99464
  0    63     10.45662    1.84169
  0    64     10.95133    0.15267
  0    65     11.12737    0.02803

  1    62     10.26195    1.97576
  1    63     10.44130    1.86263
  1    64     10.84041    0.40071
  1    65     11.06399    0.05218


Fermi level: 10.70201

No gap
No difference between direct/indirect transitions

Forces in eV/Ang:
  0 Ti   -0.22406   -0.91006   -0.36820
  1 Ti   -0.75579    0.38895   -0.21270
  2 C    -0.80309   -0.28562   -0.77991
  3 Ti   -0.94924    1.45158   -1.29201
  4 Ti    0.62428   -0.45300    3.81750
  5 C    -0.61144    0.48681   -1.70610
  6 Ti    8.68630   18.59196  -26.99680
  7 Ti    0.02306   -0.78738   -0.72966
  8 C     1.60044    2.41954   -3.76085
  9 Ti   -0.31776    0.25017   -0.45106
 10 Ti    0.35179    0.36359   -0.14770
 11 C     0.32547   -1.44611   -2.21500
 12 N    -8.57492   10.22245    4.73350
 13 O     4.25598  -26.68635   29.90106
 14 O    -3.62884   -3.60990    0.20903

System changes: positions 

Initializing position-dependent things.

Density initialized from wave functions
                                
                                
                                
                                
                   N            
                 O    O         
                                
                                
                                
                                
                                
                                
              Ti   C            
         Ti      Ti             
              C      C          
            Ti    Ti            
                C               
            Ti      Ti          
               Ti               
                                
                                
                                
                                

Positions:
   0 Ti    -0.004236   -0.016840    3.573843    ( 0.0000,  0.0000,  0.0000)
   1 Ti     1.528015   -0.872164    1.223316    ( 0.0000,  0.0000,  0.0000)
   2 C      1.520498    0.879592    2.385352    ( 0.0000,  0.0000,  0.0000)
   3 Ti     1.336161    2.777077    3.454596    ( 0.0000,  0.0000,  0.0000)
   4 Ti     3.094003    1.759894    1.337268    ( 0.0000,  0.0000,  0.0000)
   5 C      3.056829    3.579336    2.347220    ( 0.0000,  0.0000,  0.0000)
   6 Ti     1.727594   -2.669059    3.353362    ( 0.0000,  0.0000,  0.0000)
   7 Ti     3.081327   -3.574008    1.215481    ( 0.0000,  0.0000,  0.0000)
   8 C      3.136140   -1.711857    2.308187    ( 0.0000,  0.0000,  0.0000)
   9 Ti     3.073182   -0.000130    3.570801    ( 0.0000,  0.0000,  0.0000)
  10 Ti     4.623282   -0.882252    1.234519    ( 0.0000,  0.0000,  0.0000)
  11 C      4.633017    0.853500    2.347228    ( 0.0000,  0.0000,  0.0000)
  12 N      3.353874    3.151351    9.297913    ( 0.0000,  0.0000,  0.0000)
  13 O      4.681313    1.879728    9.328220    ( 0.0000,  0.0000,  0.0000)
  14 O      2.595283    1.851533    9.165885    ( 0.0000,  0.0000,  0.0000)

Unit cell:
           periodic     x           y           z      points  spacing
  1. axis:    yes    3.081396   -5.337135    0.000000    40     0.1334
  2. axis:    yes    3.081396    5.337135    0.000000    40     0.1334
  3. axis:    yes    0.000000    0.000000    4.813770    30     0.1605

  Lengths:   6.162793   6.162793   4.813770
  Angles:   90.000000  90.000000 120.000000

Effective grid spacing dv^(1/3) = 0.1489

     iter     time        total  log10-change:
                         energy   eigst   dens
iter:   1 18:53:37  -103.807828   +0.26
iter:   2 18:54:04  -103.181313   -0.69  -1.59
iter:   3 18:54:31  -102.000325   -0.82  -1.67
iter:   4 18:55:01  -102.018696   -1.99  -1.89
iter:   5 18:55:29  -101.765127   -1.28  -1.94
iter:   6 18:55:56  -101.934382   -1.26  -2.12
iter:   7 18:56:23  -101.679732   -1.69  -2.11
iter:   8 18:56:51  -101.674655   -3.00  -2.43
iter:   9 18:57:19  -101.670985c  -2.90  -2.58
iter:  10 18:57:46  -101.673155c  -2.70  -2.73
iter:  11 18:58:13  -101.670977c  -3.83  -2.81
iter:  12 18:58:40  -101.670637c  -3.94  -2.90
iter:  13 18:59:08  -101.671006c  -4.02  -3.00
iter:  14 18:59:35  -101.671198c  -4.32  -3.11
iter:  15 19:00:04  -101.671093c  -4.31  -3.30
iter:  16 19:00:31  -101.671088c  -4.33  -3.41
iter:  17 19:00:58  -101.671097c  -5.24  -3.66
iter:  18 19:01:25  -101.671106c  -5.60  -3.69
iter:  19 19:01:52  -101.671182c  -5.42  -3.80
iter:  20 19:02:19  -101.671170c  -5.83  -3.98
iter:  21 19:02:47  -101.671183c  -6.01  -4.10c
iter:  22 19:03:14  -101.671186c  -6.38  -4.22c
iter:  23 19:03:41  -101.671183c  -7.16  -4.36c
iter:  24 19:04:08  -101.671176c  -6.55  -4.42c
iter:  25 19:04:35  -101.671175c  -6.86  -4.58c
iter:  26 19:05:05  -101.671168c  -7.09  -4.70c
iter:  27 19:05:32  -101.671167c  -7.70c -4.93c

Converged after 27 iterations.

Dipole moment: (4.146833, -11.674496, 12.950898) |e|*Ang

Energy contributions relative to reference atoms: (reference = -195466.052822)

Kinetic:       +226.500050
Potential:     -204.616315
External:        +0.000000
XC:            -124.312507
Entropy (-ST):   -0.246207
Local:           +0.880708
SIC:             +0.000000
--------------------------
Free energy:   -101.794271
Extrapolated:  -101.671167

Showing only first 2 kpts
 Kpt  Band  Eigenvalues  Occupancy
  0    62     10.19337    1.98631
  0    63     10.39671    1.89994
  0    64     11.05865    0.04941
  0    65     11.20541    0.01161

  1    62     10.27763    1.96848
  1    63     10.43776    1.85288
  1    64     10.92367    0.17801
  1    65     11.15780    0.01862


Fermi level: 10.69108

No gap
No difference between direct/indirect transitions

Forces in eV/Ang:
  0 Ti   -0.42757   -0.78795   -0.23807
  1 Ti   -0.72010    0.07931   -0.58599
  2 C    -0.62026   -0.25958   -0.72775
  3 Ti    1.33993    0.86805   -0.15585
  4 Ti    0.18597    0.26879    0.05371
  5 C    -0.33781    0.20001   -0.76175
  6 Ti    1.23565   12.83694  -17.96026
  7 Ti    0.06459   -0.46024   -0.89016
  8 C    -0.71474    1.00639   -2.34423
  9 Ti   -0.14453    0.21397   -0.39718
 10 Ti    0.88239    0.15882   -1.01150
 11 C     0.32422   -0.99677   -1.14196
 12 N    -4.82652    6.19641    2.56373
 13 O     3.92653  -17.36483   21.78752
 14 O    -0.16327   -1.96315    1.81119

System changes: positions 

Initializing position-dependent things.

Density initialized from wave functions
                                 
                                 
                                 
                                 
                    N            
                 O     O         
                                 
                                 
                                 
                                 
                                 
                                 
               Ti  C             
         Ti      Ti              
              C       C          
            Ti    Ti             
                C                
             Ti     Ti           
               Ti                
                                 
                                 
                                 
                                 

Positions:
   0 Ti    -0.011444   -0.030765    3.568175    ( 0.0000,  0.0000,  0.0000)
   1 Ti     1.514950   -0.866998    1.212287    ( 0.0000,  0.0000,  0.0000)
   2 C      1.507480    0.874073    2.370726    ( 0.0000,  0.0000,  0.0000)
   3 Ti     1.329551    2.803941    3.433756    ( 0.0000,  0.0000,  0.0000)
   4 Ti     3.100389    1.761114    1.356037    ( 0.0000,  0.0000,  0.0000)
   5 C      3.047422    3.586036    2.325733    ( 0.0000,  0.0000,  0.0000)
   6 Ti     1.661743   -2.705976    3.324241    ( 0.0000,  0.0000,  0.0000)
   7 Ti     3.081780   -3.584148    1.197924    ( 0.0000,  0.0000,  0.0000)
   8 C      3.138908   -1.682681    2.252993    ( 0.0000,  0.0000,  0.0000)
   9 Ti     3.070003    0.004356    3.562367    ( 0.0000,  0.0000,  0.0000)
  10 Ti     4.636797   -0.878672    1.220558    ( 0.0000,  0.0000,  0.0000)
  11 C      4.640012    0.832604    2.318692    ( 0.0000,  0.0000,  0.0000)
  12 N      3.310300    3.254096    9.358693    ( 0.0000,  0.0000,  0.0000)
  13 O      4.842042    1.846753    9.442583    ( 0.0000,  0.0000,  0.0000)
  14 O      2.566393    1.791881    9.198512    ( 0.0000,  0.0000,  0.0000)

Unit cell:
           periodic     x           y           z      points  spacing
  1. axis:    yes    3.081396   -5.337135    0.000000    40     0.1334
  2. axis:    yes    3.081396    5.337135    0.000000    40     0.1334
  3. axis:    yes    0.000000    0.000000    4.813770    30     0.1605

  Lengths:   6.162793   6.162793   4.813770
  Angles:   90.000000  90.000000 120.000000

Effective grid spacing dv^(1/3) = 0.1489

     iter     time        total  log10-change:
                         energy   eigst   dens
iter:   1 19:06:05  -107.107905   +0.00
iter:   2 19:06:31  -106.733907   -0.93  -1.65
iter:   3 19:06:58  -106.241420   -1.06  -1.74
iter:   4 19:07:25  -106.179256   -2.15  -1.98
iter:   5 19:07:51  -106.080654   -1.58  -2.03
iter:   6 19:08:18  -106.105726   -1.76  -2.21
iter:   7 19:08:45  -106.031622   -2.47  -2.27
iter:   8 19:09:13  -106.030758   -3.08  -2.55
iter:   9 19:09:41  -106.029547c  -3.09  -2.68
iter:  10 19:10:10  -106.030147c  -3.18  -2.85
iter:  11 19:10:37  -106.029827c  -4.11  -2.97
iter:  12 19:11:04  -106.029796c  -4.55  -3.03
iter:  13 19:11:31  -106.029991c  -4.16  -3.09
iter:  14 19:11:59  -106.030378c  -4.08  -3.29
iter:  15 19:12:26  -106.030207c  -4.91  -3.46
iter:  16 19:12:53  -106.030204c  -4.84  -3.62
iter:  17 19:13:21  -106.030242c  -5.71  -3.82
iter:  18 19:13:48  -106.030262c  -5.62  -3.94
iter:  19 19:14:15  -106.030262c  -6.21  -4.03c
iter:  20 19:14:43  -106.030254c  -5.96  -4.07c
iter:  21 19:15:10  -106.030267c  -6.27  -4.19c
iter:  22 19:15:37  -106.030263c  -6.99  -4.29c
iter:  23 19:16:04  -106.030249c  -6.06  -4.32c
iter:  24 19:16:31  -106.030255c  -6.77  -4.55c
iter:  25 19:16:58  -106.030252c  -7.81c -4.88c

Converged after 25 iterations.

Dipole moment: (6.264779, -8.763985, 14.300256) |e|*Ang

Energy contributions relative to reference atoms: (reference = -195466.052822)

Kinetic:       +205.413527
Potential:     -191.058070
External:        +0.000000
XC:            -121.318617
Entropy (-ST):   -0.251832
Local:           +1.058824
SIC:             +0.000000
--------------------------
Free energy:   -106.156168
Extrapolated:  -106.030252

Showing only first 2 kpts
 Kpt  Band  Eigenvalues  Occupancy
  0    62     10.20167    1.98692
  0    63     10.47347    1.81868
  0    64     10.96714    0.13434
  0    65     11.42202    0.00152

  1    62     10.28122    1.97126
  1    63     10.46602    1.83060
  1    64     10.88984    0.26987
  1    65     11.23054    0.01029


Fermi level: 10.70404

No gap
No difference between direct/indirect transitions

Forces in eV/Ang:
  0 Ti   -0.39105   -0.62804   -0.27338
  1 Ti   -0.58954   -0.02387   -0.87855
  2 C    -0.26721   -0.22587   -0.50760
  3 Ti    2.70941    0.07437    0.59037
  4 Ti   -0.19654    0.60554   -1.11654
  5 C    -0.31728    0.08884   -0.16609
  6 Ti   -1.36634    7.92962   -9.70925
  7 Ti    0.71400   -0.03615    0.12861
  8 C    -1.93020   -0.20883   -1.03575
  9 Ti   -0.21833    0.17165   -0.55864
 10 Ti    1.07406   -0.11567   -1.55832
 11 C     0.29754   -0.60832   -0.11910
 12 N    -1.73654    5.79141    2.02755
 13 O     3.19799   -9.71139   12.31948
 14 O    -0.97560   -3.10838    0.86013

System changes: positions 

Initializing position-dependent things.

Density initialized from wave functions
                                 
                                 
                                 
                                 
                    N            
                 O     O         
                                 
                                 
                                 
                                 
                                 
                                 
              Ti   C             
         Ti      Ti              
              C      C           
            Ti    Ti             
                C                
             Ti     Ti           
               Ti                
                                 
                                 
                                 
                                 

Positions:
   0 Ti    -0.020297   -0.046495    3.560345    ( 0.0000,  0.0000,  0.0000)
   1 Ti     1.500151   -0.862922    1.193368    ( 0.0000,  0.0000,  0.0000)
   2 C      1.496916    0.867554    2.355650    ( 0.0000,  0.0000,  0.0000)
   3 Ti     1.347241    2.824874    3.421181    ( 0.0000,  0.0000,  0.0000)
   4 Ti     3.101243    1.768963    1.357834    ( 0.0000,  0.0000,  0.0000)
   5 C      3.036057    3.592356    2.309122    ( 0.0000,  0.0000,  0.0000)
   6 Ti     1.579055   -2.728118    3.298612    ( 0.0000,  0.0000,  0.0000)
   7 Ti     3.093835   -3.589655    1.193430    ( 0.0000,  0.0000,  0.0000)
   8 C      3.117859   -1.668009    2.206376    ( 0.0000,  0.0000,  0.0000)
   9 Ti     3.064548    0.009019    3.548689    ( 0.0000,  0.0000,  0.0000)
  10 Ti     4.658138   -0.878822    1.192206    ( 0.0000,  0.0000,  0.0000)
  11 C      4.648432    0.812381    2.300640    ( 0.0000,  0.0000,  0.0000)
  12 N      3.281800    3.393167    9.430526    ( 0.0000,  0.0000,  0.0000)
  13 O      5.008670    1.814549    9.548403    ( 0.0000,  0.0000,  0.0000)
  14 O      2.522743    1.696637    9.227017    ( 0.0000,  0.0000,  0.0000)

Unit cell:
           periodic     x           y           z      points  spacing
  1. axis:    yes    3.081396   -5.337135    0.000000    40     0.1334
  2. axis:    yes    3.081396    5.337135    0.000000    40     0.1334
  3. axis:    yes    0.000000    0.000000    4.813770    30     0.1605

  Lengths:   6.162793   6.162793   4.813770
  Angles:   90.000000  90.000000 120.000000

Effective grid spacing dv^(1/3) = 0.1489

     iter     time        total  log10-change:
                         energy   eigst   dens
iter:   1 19:17:31  -110.583438   -0.07
iter:   2 19:17:58  -110.066321   -0.98  -1.61
iter:   3 19:18:24  -109.496562   -0.98  -1.71
iter:   4 19:18:51  -109.397487   -2.09  -1.93
iter:   5 19:19:17  -109.296544   -1.64  -2.00
iter:   6 19:19:44  -109.293758   -1.84  -2.18
iter:   7 19:20:12  -109.248371c  -2.58  -2.29
iter:   8 19:20:38  -109.249393c  -3.29  -2.47
iter:   9 19:21:11  -109.240888c  -2.66  -2.55
iter:  10 19:21:38  -109.241083c  -3.46  -2.83
iter:  11 19:22:05  -109.240961c  -4.26  -2.87
iter:  12 19:22:33  -109.241184c  -3.71  -2.92
iter:  13 19:23:00  -109.241071c  -4.09  -3.21
iter:  14 19:23:27  -109.240854c  -4.66  -3.31
iter:  15 19:23:54  -109.240908c  -4.84  -3.42
iter:  16 19:24:21  -109.240955c  -5.08  -3.55
iter:  17 19:24:50  -109.240929c  -5.38  -3.68
iter:  18 19:25:17  -109.240946c  -5.61  -3.78
iter:  19 19:25:44  -109.240994c  -5.65  -3.91
iter:  20 19:26:11  -109.241006c  -6.11  -4.08c
iter:  21 19:26:40  -109.241011c  -6.71  -4.24c
iter:  22 19:27:07  -109.241014c  -6.71  -4.28c
iter:  23 19:27:35  -109.241014c  -6.66  -4.38c
iter:  24 19:28:02  -109.241012c  -6.91  -4.48c
iter:  25 19:28:30  -109.241011c  -7.50c -4.65c

Converged after 25 iterations.

Dipole moment: (6.695605, -8.305914, 12.340189) |e|*Ang

Energy contributions relative to reference atoms: (reference = -195466.052822)

Kinetic:       +193.510582
Potential:     -183.662761
External:        +0.000000
XC:            -120.110036
Entropy (-ST):   -0.243854
Local:           +1.143131
SIC:             +0.000000
--------------------------
Free energy:   -109.362938
Extrapolated:  -109.241011

Showing only first 2 kpts
 Kpt  Band  Eigenvalues  Occupancy
  0    62     10.15968    1.99221
  0    63     10.61302    1.46643
  0    64     10.83001    0.47775
  0    65     11.51946    0.00064

  1    62     10.11490    1.99502
  1    63     10.53108    1.72362
  1    64     10.77341    0.71195
  1    65     11.24547    0.00980


Fermi level: 10.71412

No gap
No difference between direct/indirect transitions

Forces in eV/Ang:
  0 Ti   -0.26577   -0.37442   -0.34766
  1 Ti   -0.53006   -0.16023   -1.06558
  2 C     0.16290   -0.21701   -0.25474
  3 Ti    3.21026   -0.20332    0.99826
  4 Ti   -0.45374    0.92568   -1.99688
  5 C    -0.25671   -0.00917    0.23333
  6 Ti   -1.53388    4.68350   -2.73741
  7 Ti    2.52071    0.30535    2.95692
  8 C    -1.87982   -1.01559   -0.08212
  9 Ti   -0.26604    0.20616   -0.73758
 10 Ti    0.81271   -0.42972   -1.60766
 11 C     0.06169   -0.15255    0.70352
 12 N    -0.17134    5.83045    1.76293
 13 O     0.04939   -4.60446    2.21149
 14 O    -1.45916   -4.78609   -0.03496

System changes: positions 

Initializing position-dependent things.

Density initialized from wave functions
                                  
                                  
                                  
                                  
                    N             
                 O      O         
                                  
                                  
                                  
                                  
                                  
                                  
               Ti  C              
         Ti      Ti               
              C       C           
            Ti    Ti              
                C                 
             Ti      Ti           
               Ti                 
                                  
                                  
                                  
                                  

Positions:
   0 Ti    -0.030025   -0.063065    3.549612    ( 0.0000,  0.0000,  0.0000)
   1 Ti     1.481751   -0.861032    1.166223    ( 0.0000,  0.0000,  0.0000)
   2 C      1.490316    0.859542    2.340445    ( 0.0000,  0.0000,  0.0000)
   3 Ti     1.389701    2.843551    3.418126    ( 0.0000,  0.0000,  0.0000)
   4 Ti     3.097751    1.785297    1.340551    ( 0.0000,  0.0000,  0.0000)
   5 C      3.023562    3.597913    2.296254    ( 0.0000,  0.0000,  0.0000)
   6 Ti     1.492745   -2.724960    3.284725    ( 0.0000,  0.0000,  0.0000)
   7 Ti     3.137739   -3.591252    1.231825    ( 0.0000,  0.0000,  0.0000)
   8 C      3.087402   -1.664259    2.164108    ( 0.0000,  0.0000,  0.0000)
   9 Ti     3.057087    0.015601    3.528849    ( 0.0000,  0.0000,  0.0000)
  10 Ti     4.682314   -0.883956    1.153706    ( 0.0000,  0.0000,  0.0000)
  11 C      4.655184    0.794107    2.291987    ( 0.0000,  0.0000,  0.0000)
  12 N      3.256243    3.573765    9.512569    ( 0.0000,  0.0000,  0.0000)
  13 O      5.146742    1.765935    9.614721    ( 0.0000,  0.0000,  0.0000)
  14 O      2.467925    1.558182    9.249815    ( 0.0000,  0.0000,  0.0000)

Unit cell:
           periodic     x           y           z      points  spacing
  1. axis:    yes    3.081396   -5.337135    0.000000    40     0.1334
  2. axis:    yes    3.081396    5.337135    0.000000    40     0.1334
  3. axis:    yes    0.000000    0.000000    4.813770    30     0.1605

  Lengths:   6.162793   6.162793   4.813770
  Angles:   90.000000  90.000000 120.000000

Effective grid spacing dv^(1/3) = 0.1489

     iter     time        total  log10-change:
                         energy   eigst   dens
iter:   1 19:29:03  -112.427902   -0.18
iter:   2 19:29:30  -111.921896   -1.14  -1.63
iter:   3 19:29:57  -111.474605   -1.10  -1.74
iter:   4 19:30:24  -111.392751   -2.08  -2.02
iter:   5 19:30:51  -111.319090   -1.65  -2.09
iter:   6 19:31:18  -111.330983   -2.07  -2.35
iter:   7 19:31:45  -111.300891c  -2.37  -2.37
iter:   8 19:32:12  -111.302587c  -3.14  -2.60
iter:   9 19:32:39  -111.297763c  -3.01  -2.66
iter:  10 19:33:06  -111.297838c  -3.36  -2.89
iter:  11 19:33:33  -111.297798c  -4.32  -2.93
iter:  12 19:34:01  -111.298522c  -3.36  -2.96
iter:  13 19:34:28  -111.297940c  -4.18  -3.10
iter:  14 19:34:55  -111.298099c  -4.01  -3.31
iter:  15 19:35:23  -111.298039c  -5.16  -3.44
iter:  16 19:35:50  -111.298161c  -4.34  -3.54
iter:  17 19:36:17  -111.298117c  -4.72  -3.71
iter:  18 19:36:44  -111.298104c  -5.91  -3.83
iter:  19 19:37:12  -111.298096c  -5.91  -3.87
iter:  20 19:37:39  -111.298199c  -4.52  -3.90
iter:  21 19:38:08  -111.298114c  -5.37  -3.83
iter:  22 19:38:35  -111.298123c  -6.35  -4.09c
iter:  23 19:39:02  -111.298153c  -4.95  -4.02c
iter:  24 19:39:29  -111.298139c  -6.03  -4.14c
iter:  25 19:39:57  -111.298139c  -6.90  -4.45c
iter:  26 19:40:24  -111.298133c  -6.68  -4.51c
iter:  27 19:40:51  -111.298134c  -7.01  -4.68c
iter:  28 19:41:18  -111.298139c  -7.26  -4.79c
iter:  29 19:41:45  -111.298139c  -8.00c -4.95c

Converged after 29 iterations.

Dipole moment: (5.865655, -9.457266, 8.445549) |e|*Ang

Energy contributions relative to reference atoms: (reference = -195466.052822)

Kinetic:       +189.343961
Potential:     -181.111022
External:        +0.000000
XC:            -120.559948
Entropy (-ST):   -0.231383
Local:           +1.144561
SIC:             +0.000000
--------------------------
Free energy:   -111.413831
Extrapolated:  -111.298139

Showing only first 2 kpts
 Kpt  Band  Eigenvalues  Occupancy
  0    62     10.05654    1.99827
  0    63     10.79836    0.81981
  0    64     10.91125    0.36685
  0    65     11.42528    0.00263

  1    62      9.90566    1.99962
  1    63     10.64217    1.53617
  1    64     10.85320    0.57285
  1    65     11.26018    0.01362


Fermi level: 10.76192

No gap
No difference between direct/indirect transitions

Forces in eV/Ang:
  0 Ti   -0.26550    0.38928   -0.67948
  1 Ti   -0.14715   -0.09954   -0.64448
  2 C     0.74787   -0.24753    0.04958
  3 Ti    2.65892   -0.30393    1.19021
  4 Ti   -0.24648    0.81667   -1.95214
  5 C    -0.16556   -0.17090    0.50557
  6 Ti   -0.24276    2.91995    1.08034
  7 Ti    3.49537    0.82054    5.02215
  8 C    -1.08685   -1.46210    0.74179
  9 Ti    0.05738   -0.51926   -1.19001
 10 Ti    0.00571   -0.29834   -1.06570
 11 C    -0.33424    0.46580    1.02229
 12 N    -0.40998    2.43089    0.77033
 13 O    -3.01276   -2.28845   -4.65481
 14 O    -1.05252   -2.45459   -0.19382

System changes: positions 

Initializing position-dependent things.

Density initialized from wave functions
                                  
                                  
                                  
                                  
                    N             
                O       O         
                                  
                                  
                                  
                                  
                                  
                                  
               Ti  C              
         Ti      Ti               
              C       C           
           Ti     Ti              
                C                 
             Ti      Ti           
               Ti                 
                                  
                                  
                                  
                                  

Positions:
   0 Ti    -0.040776   -0.065292    3.531808    ( 0.0000,  0.0000,  0.0000)
   1 Ti     1.469514   -0.860154    1.143235    ( 0.0000,  0.0000,  0.0000)
   2 C      1.497284    0.850666    2.331524    ( 0.0000,  0.0000,  0.0000)
   3 Ti     1.448307    2.852784    3.431678    ( 0.0000,  0.0000,  0.0000)
   4 Ti     3.095011    1.804950    1.306400    ( 0.0000,  0.0000,  0.0000)
   5 C      3.013568    3.598667    2.294193    ( 0.0000,  0.0000,  0.0000)
   6 Ti     1.434484   -2.686357    3.288695    ( 0.0000,  0.0000,  0.0000)
   7 Ti     3.210813   -3.580109    1.323233    ( 0.0000,  0.0000,  0.0000)
   8 C      3.058119   -1.679433    2.145667    ( 0.0000,  0.0000,  0.0000)
   9 Ti     3.055427    0.008434    3.498048    ( 0.0000,  0.0000,  0.0000)
  10 Ti     4.694524   -0.888822    1.117859    ( 0.0000,  0.0000,  0.0000)
  11 C      4.653755    0.789809    2.297312    ( 0.0000,  0.0000,  0.0000)
  12 N      3.225905    3.700382    9.570370    ( 0.0000,  0.0000,  0.0000)
  13 O      5.195465    1.700218    9.596467    ( 0.0000,  0.0000,  0.0000)
  14 O      2.425106    1.459521    9.267132    ( 0.0000,  0.0000,  0.0000)

Unit cell:
           periodic     x           y           z      points  spacing
  1. axis:    yes    3.081396   -5.337135    0.000000    40     0.1334
  2. axis:    yes    3.081396    5.337135    0.000000    40     0.1334
  3. axis:    yes    0.000000    0.000000    4.813770    30     0.1605

  Lengths:   6.162793   6.162793   4.813770
  Angles:   90.000000  90.000000 120.000000

Effective grid spacing dv^(1/3) = 0.1489

     iter     time        total  log10-change:
                         energy   eigst   dens
iter:   1 19:42:18  -113.248919   -0.32
iter:   2 19:42:45  -112.985266   -1.28  -1.75
iter:   3 19:43:12  -112.682637   -1.18  -1.85
iter:   4 19:43:39  -112.636009   -2.28  -2.15
iter:   5 19:44:06  -112.610029   -2.20  -2.22
iter:   6 19:44:33  -112.641035c  -1.88  -2.34
iter:   7 19:45:00  -112.600217c  -2.43  -2.38
iter:   8 19:45:27  -112.602425c  -3.44  -2.70
iter:   9 19:45:54  -112.598175c  -3.09  -2.71
iter:  10 19:46:21  -112.598563c  -3.75  -3.00
iter:  11 19:46:48  -112.598683c  -4.37  -3.05
iter:  12 19:47:16  -112.598438c  -3.86  -3.10
iter:  13 19:47:43  -112.598398c  -4.32  -3.35
iter:  14 19:48:10  -112.598481c  -4.34  -3.55
iter:  15 19:48:37  -112.598312c  -5.14  -3.59
iter:  16 19:49:15  -112.598325c  -5.68  -3.78
iter:  17 19:49:42  -112.598340c  -5.92  -3.83
iter:  18 19:50:09  -112.598320c  -5.35  -3.88
iter:  19 19:50:35  -112.598340c  -6.23  -3.98
iter:  20 19:51:02  -112.598365c  -5.63  -4.04c
iter:  21 19:51:29  -112.598342c  -6.13  -4.11c
iter:  22 19:51:56  -112.598351c  -6.15  -4.29c
iter:  23 19:52:23  -112.598354c  -7.10  -4.74c
iter:  24 19:52:50  -112.598356c  -7.18  -4.83c
iter:  25 19:53:17  -112.598355c  -7.05  -4.87c
iter:  26 19:53:44  -112.598356c  -8.00c -5.00c

Converged after 26 iterations.

Dipole moment: (6.369165, -8.027606, 7.188341) |e|*Ang

Energy contributions relative to reference atoms: (reference = -195466.052822)

Kinetic:       +184.721250
Potential:     -177.670471
External:        +0.000000
XC:            -120.702994
Entropy (-ST):   -0.209778
Local:           +1.158748
SIC:             +0.000000
--------------------------
Free energy:   -112.703245
Extrapolated:  -112.598356

Showing only first 2 kpts
 Kpt  Band  Eigenvalues  Occupancy
  0    62      9.92790    1.99969
  0    63     10.82493    0.90001
  0    64     11.03925    0.17511
  0    65     11.32650    0.01080

  1    62      9.85217    1.99985
  1    63     10.68625    1.53209
  1    64     10.94323    0.40083
  1    65     11.30044    0.01399


Fermi level: 10.80486

No gap
No difference between direct/indirect transitions

Forces in eV/Ang:
  0 Ti   -0.25657    1.13102   -0.94079
  1 Ti    0.55714    0.05670    0.09766
  2 C     1.24916   -0.38211    0.38131
  3 Ti    1.76523   -0.26009    1.31754
  4 Ti    0.37640    0.50573   -1.07876
  5 C    -0.13847   -0.03609    0.47172
  6 Ti    0.89860    1.67989    1.97683
  7 Ti   -0.30511    1.20058    0.86779
  8 C    -0.31246   -1.33539    1.24391
  9 Ti    0.54881   -1.06372   -1.46646
 10 Ti   -0.74981    0.12771   -0.25664
 11 C    -0.53511    0.91201    0.69961
 12 N    -0.67883    0.03144   -0.28671
 13 O    -1.15543   -1.80340   -2.83204
 14 O    -1.26310   -0.76590   -0.19171

System changes: positions 

Initializing position-dependent things.

Density initialized from wave functions
                                  
                                  
                                  
                                  
                    N             
                O      O          
                                  
                                  
                                  
                                  
                                  
                                  
               Ti  C              
         Ti      Ti               
              C       C           
           Ti     Ti              
                C                 
             Ti      Ti           
               Ti                 
                                  
                                  
                                  
                                  

Positions:
   0 Ti    -0.050460   -0.045634    3.506995    ( 0.0000,  0.0000,  0.0000)
   1 Ti     1.475027   -0.858298    1.136093    ( 0.0000,  0.0000,  0.0000)
   2 C      1.522412    0.839541    2.334215    ( 0.0000,  0.0000,  0.0000)
   3 Ti     1.501878    2.854146    3.459503    ( 0.0000,  0.0000,  0.0000)
   4 Ti     3.101966    1.821888    1.273602    ( 0.0000,  0.0000,  0.0000)
   5 C      3.006518    3.599013    2.300662    ( 0.0000,  0.0000,  0.0000)
   6 Ti     1.422259   -2.642527    3.320407    ( 0.0000,  0.0000,  0.0000)
   7 Ti     3.225653   -3.553958    1.363511    ( 0.0000,  0.0000,  0.0000)
   8 C      3.039852   -1.708052    2.158312    ( 0.0000,  0.0000,  0.0000)
   9 Ti     3.065426   -0.014256    3.458307    ( 0.0000,  0.0000,  0.0000)
  10 Ti     4.686291   -0.887456    1.098487    ( 0.0000,  0.0000,  0.0000)
  11 C      4.643946    0.803822    2.309832    ( 0.0000,  0.0000,  0.0000)
  12 N      3.198302    3.754019    9.590649    ( 0.0000,  0.0000,  0.0000)
  13 O      5.211332    1.637779    9.557491    ( 0.0000,  0.0000,  0.0000)
  14 O      2.386145    1.405157    9.275666    ( 0.0000,  0.0000,  0.0000)

Unit cell:
           periodic     x           y           z      points  spacing
  1. axis:    yes    3.081396   -5.337135    0.000000    40     0.1334
  2. axis:    yes    3.081396    5.337135    0.000000    40     0.1334
  3. axis:    yes    0.000000    0.000000    4.813770    30     0.1605

  Lengths:   6.162793   6.162793   4.813770
  Angles:   90.000000  90.000000 120.000000

Effective grid spacing dv^(1/3) = 0.1489

     iter     time        total  log10-change:
                         energy   eigst   dens
iter:   1 19:54:17  -113.458992   -0.80
iter:   2 19:54:45  -113.423653   -1.74  -2.08
iter:   3 19:55:12  -113.370431   -1.82  -2.15
iter:   4 19:55:39  -113.358200   -2.79  -2.37
iter:   5 19:56:06  -113.349643c  -2.58  -2.44
iter:   6 19:56:32  -113.356842c  -2.74  -2.69
iter:   7 19:57:00  -113.346647c  -3.15  -2.72
iter:   8 19:57:27  -113.347347c  -4.31  -2.97
iter:   9 19:57:54  -113.346439c  -3.75  -3.00
iter:  10 19:58:21  -113.346758c  -3.67  -3.23
iter:  11 19:58:48  -113.346562c  -4.61  -3.32
iter:  12 19:59:15  -113.346516c  -4.83  -3.49
iter:  13 19:59:42  -113.346447c  -5.21  -3.64
iter:  14 20:00:09  -113.346451c  -5.39  -3.78
iter:  15 20:00:36  -113.346442c  -5.78  -3.86
iter:  16 20:01:03  -113.346446c  -5.90  -3.91
iter:  17 20:01:30  -113.346474c  -6.14  -3.96
iter:  18 20:01:58  -113.346474c  -6.25  -4.14c
iter:  19 20:02:25  -113.346473c  -6.32  -4.24c
iter:  20 20:02:52  -113.346471c  -6.75  -4.39c
iter:  21 20:03:19  -113.346468c  -7.10  -4.57c
iter:  22 20:03:46  -113.346464c  -7.23  -4.64c
iter:  23 20:04:13  -113.346463c  -6.98  -4.72c
iter:  24 20:04:40  -113.346463c  -7.71c -4.86c

Converged after 24 iterations.

Dipole moment: (6.398231, -6.666637, 7.792271) |e|*Ang

Energy contributions relative to reference atoms: (reference = -195466.052822)

Kinetic:       +180.551235
Potential:     -174.471002
External:        +0.000000
XC:            -120.493297
Entropy (-ST):   -0.202069
Local:           +1.167636
SIC:             +0.000000
--------------------------
Free energy:   -113.447497
Extrapolated:  -113.346463

Showing only first 2 kpts
 Kpt  Band  Eigenvalues  Occupancy
  0    62      9.83299    1.99992
  0    63     10.82062    1.12024
  0    64     11.19153    0.06051
  0    65     11.34196    0.01377

  1    62      9.86508    1.99989
  1    63     10.73931    1.48340
  1    64     11.04022    0.24816
  1    65     11.35621    0.01195


Fermi level: 10.84479

No gap
No difference between direct/indirect transitions

Forces in eV/Ang:
  0 Ti   -0.05696    1.18858   -0.78313
  1 Ti    0.70067    0.17241    0.38925
  2 C     0.81430    0.00861   -0.03431
  3 Ti    1.08056   -0.27315    1.00618
  4 Ti    0.56269    0.37052   -0.26991
  5 C    -0.02670    0.11860    0.18719
  6 Ti    1.10269    1.04711    1.53136
  7 Ti   -1.25502    0.66930   -0.81684
  8 C     0.09156   -0.78279    1.36045
  9 Ti    0.58684   -0.74664   -0.99893
 10 Ti   -0.85267    0.24791    0.26698
 11 C    -0.51675    1.01492    0.24507
 12 N    -0.54345   -0.69073   -0.71253
 13 O    -0.40120   -1.66489   -1.22194
 14 O    -1.28585   -0.68261   -0.14797

System changes: positions 

Initializing position-dependent things.

Density initialized from wave functions
                                  
                                  
                                  
                                  
                    N             
                       O          
                O                 
                                  
                                  
                                  
                                  
                                  
               Ti  C              
         Ti      Ti               
              C      C            
           Ti     Ti              
                C                 
             Ti      Ti           
               Ti                 
                                  
                                  
                                  
                                  

Positions:
   0 Ti    -0.062050    0.005665    3.460170    ( 0.0000,  0.0000,  0.0000)
   1 Ti     1.498087   -0.851637    1.137040    ( 0.0000,  0.0000,  0.0000)
   2 C      1.567681    0.830079    2.332200    ( 0.0000,  0.0000,  0.0000)
   3 Ti     1.589814    2.849134    3.514657    ( 0.0000,  0.0000,  0.0000)
   4 Ti     3.123271    1.851778    1.227738    ( 0.0000,  0.0000,  0.0000)
   5 C      2.998500    3.602962    2.311650    ( 0.0000,  0.0000,  0.0000)
   6 Ti     1.429026   -2.568278    3.393688    ( 0.0000,  0.0000,  0.0000)
   7 Ti     3.216375   -3.511258    1.390502    ( 0.0000,  0.0000,  0.0000)
   8 C      3.018785   -1.759005    2.208099    ( 0.0000,  0.0000,  0.0000)
   9 Ti     3.090906   -0.055804    3.390805    ( 0.0000,  0.0000,  0.0000)
  10 Ti     4.657274   -0.880217    1.083013    ( 0.0000,  0.0000,  0.0000)
  11 C      4.620206    0.845650    2.329256    ( 0.0000,  0.0000,  0.0000)
  12 N      3.155749    3.798698    9.595961    ( 0.0000,  0.0000,  0.0000)
  13 O      5.219823    1.527337    9.483471    ( 0.0000,  0.0000,  0.0000)
  14 O      2.313173    1.319900    9.285616    ( 0.0000,  0.0000,  0.0000)

Unit cell:
           periodic     x           y           z      points  spacing
  1. axis:    yes    3.081396   -5.337135    0.000000    40     0.1334
  2. axis:    yes    3.081396    5.337135    0.000000    40     0.1334
  3. axis:    yes    0.000000    0.000000    4.813770    30     0.1605

  Lengths:   6.162793   6.162793   4.813770
  Angles:   90.000000  90.000000 120.000000

Effective grid spacing dv^(1/3) = 0.1489

     iter     time        total  log10-change:
                         energy   eigst   dens
iter:   1 20:05:16  -114.340432   -0.41
iter:   2 20:05:44  -114.299511   -1.34  -1.90
iter:   3 20:06:12  -114.196559   -1.54  -1.95
iter:   4 20:06:39  -114.168071   -2.38  -2.17
iter:   5 20:07:07  -114.151531c  -2.11  -2.25
iter:   6 20:07:34  -114.166360c  -2.43  -2.59
iter:   7 20:08:02  -114.145282c  -2.95  -2.51
iter:   8 20:08:29  -114.147172c  -3.69  -2.76
iter:   9 20:08:56  -114.145057c  -3.28  -2.81
iter:  10 20:09:24  -114.146308c  -3.36  -3.05
iter:  11 20:09:53  -114.145627c  -4.01  -3.13
iter:  12 20:10:21  -114.145600c  -4.48  -3.31
iter:  13 20:10:50  -114.145449c  -4.52  -3.41
iter:  14 20:11:19  -114.145432c  -4.79  -3.61
iter:  15 20:11:46  -114.145419c  -5.44  -3.75
iter:  16 20:12:14  -114.145422c  -5.73  -3.78
iter:  17 20:12:41  -114.145477c  -5.64  -3.84
iter:  18 20:13:08  -114.145472c  -5.97  -4.00
iter:  19 20:13:35  -114.145476c  -5.76  -4.09c
iter:  20 20:14:03  -114.145473c  -6.13  -4.19c
iter:  21 20:14:30  -114.145467c  -6.54  -4.46c
iter:  22 20:14:57  -114.145466c  -6.93  -4.57c
iter:  23 20:15:25  -114.145468c  -6.90  -4.68c
iter:  24 20:15:52  -114.145468c  -7.61c -4.81c

Converged after 24 iterations.

Dipole moment: (5.917604, -4.196311, 9.657730) |e|*Ang

Energy contributions relative to reference atoms: (reference = -195466.052822)

Kinetic:       +173.769044
Potential:     -169.083923
External:        +0.000000
XC:            -119.909479
Entropy (-ST):   -0.201389
Local:           +1.179585
SIC:             +0.000000
--------------------------
Free energy:   -114.246163
Extrapolated:  -114.145468

Showing only first 2 kpts
 Kpt  Band  Eigenvalues  Occupancy
  0    62      9.75532    1.99998
  0    63     10.81946    1.38803
  0    64     11.32181    0.02942
  0    65     11.50309    0.00486

  1    62      9.92425    1.99989
  1    63     10.79815    1.47462
  1    64     11.22293    0.07716
  1    65     11.44435    0.00873


Fermi level: 10.90136

No gap
No difference between direct/indirect transitions

Forces in eV/Ang:
  0 Ti    0.37657    0.67001   -0.17272
  1 Ti    0.39851    0.27305    0.32888
  2 C    -0.15487    0.73720   -0.85317
  3 Ti   -0.03448   -0.27847    0.18924
  4 Ti    0.37186    0.17412    0.45830
  5 C     0.30840    0.32476   -0.32958
  6 Ti    0.96677    0.40792    0.55399
  7 Ti   -1.12199   -0.57349   -2.05059
  8 C     0.55142    0.26525    1.23249
  9 Ti    0.29354    0.22358    0.23801
 10 Ti   -0.38924    0.22760    0.69093
 11 C    -0.28481    0.88618   -0.62294
 12 N    -0.04365   -0.98149   -0.81100
 13 O    -0.06779   -1.32431    0.70854
 14 O    -1.17623   -1.04593    0.44533

System changes: positions 

Initializing position-dependent things.

Density initialized from wave functions
                                  
                                  
                                  
                                  
                    N             
                       O          
                O                 
                                  
                                  
                                  
                                  
               Ti                 
                   C              
         Ti      Ti               
              C      C            
            Ti    Ti              
                C                 
             Ti     Ti            
               Ti                 
                                  
                                  
                                  
                                  

Positions:
   0 Ti    -0.059693    0.037275    3.439693    ( 0.0000,  0.0000,  0.0000)
   1 Ti     1.513719   -0.845000    1.142452    ( 0.0000,  0.0000,  0.0000)
   2 C      1.583519    0.839388    2.317591    ( 0.0000,  0.0000,  0.0000)
   3 Ti     1.625148    2.840702    3.540795    ( 0.0000,  0.0000,  0.0000)
   4 Ti     3.136428    1.866919    1.212915    ( 0.0000,  0.0000,  0.0000)
   5 C      3.001636    3.609299    2.312139    ( 0.0000,  0.0000,  0.0000)
   6 Ti     1.447248   -2.534185    3.441688    ( 0.0000,  0.0000,  0.0000)
   7 Ti     3.198574   -3.503934    1.372641    ( 0.0000,  0.0000,  0.0000)
   8 C      3.018611   -1.776950    2.252303    ( 0.0000,  0.0000,  0.0000)
   9 Ti     3.105628   -0.068080    3.369444    ( 0.0000,  0.0000,  0.0000)
  10 Ti     4.639576   -0.874253    1.088364    ( 0.0000,  0.0000,  0.0000)
  11 C      4.605759    0.878379    2.328479    ( 0.0000,  0.0000,  0.0000)
  12 N      3.143186    3.791693    9.580493    ( 0.0000,  0.0000,  0.0000)
  13 O      5.208593    1.470777    9.447771    ( 0.0000,  0.0000,  0.0000)
  14 O      2.268598    1.272654    9.297260    ( 0.0000,  0.0000,  0.0000)

Unit cell:
           periodic     x           y           z      points  spacing
  1. axis:    yes    3.081396   -5.337135    0.000000    40     0.1334
  2. axis:    yes    3.081396    5.337135    0.000000    40     0.1334
  3. axis:    yes    0.000000    0.000000    4.813770    30     0.1605

  Lengths:   6.162793   6.162793   4.813770
  Angles:   90.000000  90.000000 120.000000

Effective grid spacing dv^(1/3) = 0.1489

     iter     time        total  log10-change:
                         energy   eigst   dens
iter:   1 20:16:26  -114.526873   -1.00
iter:   2 20:16:53  -114.528261   -1.93  -2.23
iter:   3 20:17:20  -114.504849c  -2.09  -2.27
iter:   4 20:17:47  -114.499564c  -2.94  -2.49
iter:   5 20:18:14  -114.495473c  -2.77  -2.56
iter:   6 20:18:41  -114.498952c  -3.08  -2.85
iter:   7 20:19:09  -114.494443c  -3.57  -2.81
iter:   8 20:19:36  -114.494275c  -4.08  -3.03
iter:   9 20:20:03  -114.494054c  -4.07  -3.12
iter:  10 20:20:31  -114.494269c  -3.87  -3.27
iter:  11 20:20:58  -114.494174c  -5.01  -3.40
iter:  12 20:21:25  -114.494134c  -4.87  -3.44
iter:  13 20:21:52  -114.494351c  -4.48  -3.55
iter:  14 20:22:19  -114.494238c  -5.26  -3.67
iter:  15 20:22:46  -114.494204c  -5.18  -3.81
iter:  16 20:23:15  -114.494229c  -5.83  -3.95
iter:  17 20:23:43  -114.494205c  -5.07  -4.02c
iter:  18 20:24:10  -114.494214c  -5.94  -4.23c
iter:  19 20:24:37  -114.494216c  -6.73  -4.25c
iter:  20 20:25:05  -114.494216c  -6.16  -4.32c
iter:  21 20:25:31  -114.494218c  -6.57  -4.44c
iter:  22 20:25:59  -114.494214c  -7.29  -4.48c
iter:  23 20:26:27  -114.494214c  -6.89  -4.51c
iter:  24 20:26:54  -114.494215c  -7.82c -4.60c

Converged after 24 iterations.

Dipole moment: (5.473548, -3.185893, 11.105372) |e|*Ang

Energy contributions relative to reference atoms: (reference = -195466.052822)

Kinetic:       +169.028333
Potential:     -165.323298
External:        +0.000000
XC:            -119.285903
Entropy (-ST):   -0.202799
Local:           +1.188052
SIC:             +0.000000
--------------------------
Free energy:   -114.595614
Extrapolated:  -114.494215

Showing only first 2 kpts
 Kpt  Band  Eigenvalues  Occupancy
  0    62      9.78216    1.99998
  0    63     10.80152    1.51888
  0    64     11.34849    0.02625
  0    65     11.56397    0.00308

  1    62      9.95285    1.99987
  1    63     10.78845    1.56498
  1    64     11.27945    0.05167
  1    65     11.48477    0.00678


Fermi level: 10.91648

No gap
No difference between direct/indirect transitions

Forces in eV/Ang:
  0 Ti    0.55547    0.16478    0.08987
  1 Ti    0.14594    0.23293    0.12938
  2 C    -0.43043    0.86252   -0.93308
  3 Ti   -0.33227   -0.18070   -0.33899
  4 Ti    0.15531    0.18519    0.54331
  5 C     0.42417    0.35787   -0.43338
  6 Ti    0.72257    0.29821   -0.06308
  7 Ti   -0.70198   -0.57684   -1.81365
  8 C     0.72762    0.40105    0.80943
  9 Ti    0.08222    0.74712    0.69153
 10 Ti    0.08677    0.09168    0.61270
 11 C    -0.04410    0.61057   -0.87111
 12 N     0.11672   -0.77926   -0.47889
 13 O    -0.22359   -1.19400    1.22386
 14 O    -1.28612   -1.22108    0.82926

System changes: positions 

Initializing position-dependent things.

Density initialized from wave functions
                                  
                                  
                                  
                                  
                    N             
                       O          
                O                 
                                  
                                  
                                  
                                  
               Ti                 
                   C              
         Ti                       
              C  Ti   C           
            Ti     Ti             
                C                 
             Ti     Ti            
               Ti                 
                                  
                                  
                                  
                                  

Positions:
   0 Ti    -0.042212    0.086798    3.411091    ( 0.0000,  0.0000,  0.0000)
   1 Ti     1.539559   -0.830272    1.151353    ( 0.0000,  0.0000,  0.0000)
   2 C      1.598878    0.873392    2.275056    ( 0.0000,  0.0000,  0.0000)
   3 Ti     1.675059    2.822961    3.571943    ( 0.0000,  0.0000,  0.0000)
   4 Ti     3.157987    1.896125    1.197665    ( 0.0000,  0.0000,  0.0000)
   5 C      3.017309    3.626810    2.304442    ( 0.0000,  0.0000,  0.0000)
   6 Ti     1.483912   -2.483711    3.530133    ( 0.0000,  0.0000,  0.0000)
   7 Ti     3.161789   -3.501755    1.313009    ( 0.0000,  0.0000,  0.0000)
   8 C      3.035001   -1.799045    2.338262    ( 0.0000,  0.0000,  0.0000)
   9 Ti     3.129088   -0.067082    3.353688    ( 0.0000,  0.0000,  0.0000)
  10 Ti     4.617968   -0.864652    1.108357    ( 0.0000,  0.0000,  0.0000)
  11 C      4.583829    0.942063    2.308213    ( 0.0000,  0.0000,  0.0000)
  12 N      3.132000    3.759476    9.546101    ( 0.0000,  0.0000,  0.0000)
  13 O      5.177343    1.371028    9.397641    ( 0.0000,  0.0000,  0.0000)
  14 O      2.168895    1.172222    9.337169    ( 0.0000,  0.0000,  0.0000)

Unit cell:
           periodic     x           y           z      points  spacing
  1. axis:    yes    3.081396   -5.337135    0.000000    40     0.1334
  2. axis:    yes    3.081396    5.337135    0.000000    40     0.1334
  3. axis:    yes    0.000000    0.000000    4.813770    30     0.1605

  Lengths:   6.162793   6.162793   4.813770
  Angles:   90.000000  90.000000 120.000000

Effective grid spacing dv^(1/3) = 0.1489

     iter     time        total  log10-change:
                         energy   eigst   dens
iter:   1 20:27:27  -115.108025   -0.48
iter:   2 20:27:54  -115.128759   -1.39  -1.99
iter:   3 20:28:21  -115.052386   -1.59  -2.02
iter:   4 20:28:49  -115.039639   -2.33  -2.26
iter:   5 20:29:16  -115.025204c  -2.36  -2.34
iter:   6 20:29:44  -115.030983c  -2.71  -2.59
iter:   7 20:30:11  -115.022674c  -3.32  -2.62
iter:   8 20:30:38  -115.020993c  -3.17  -2.77
iter:   9 20:31:05  -115.021404c  -4.02  -2.93
iter:  10 20:31:32  -115.021507c  -3.53  -2.98
iter:  11 20:31:59  -115.021213c  -4.67  -3.16
iter:  12 20:32:27  -115.021256c  -4.04  -3.22
iter:  13 20:32:54  -115.021653c  -4.11  -3.35
iter:  14 20:33:21  -115.021422c  -4.90  -3.41
iter:  15 20:33:48  -115.021387c  -4.95  -3.65
iter:  16 20:34:15  -115.021465c  -5.28  -3.80
iter:  17 20:34:42  -115.021435c  -5.56  -3.92
iter:  18 20:35:09  -115.021427c  -6.00  -4.04c
iter:  19 20:35:36  -115.021475c  -5.72  -4.11c
iter:  20 20:36:03  -115.021449c  -6.24  -4.25c
iter:  21 20:36:30  -115.021453c  -6.90  -4.35c
iter:  22 20:36:56  -115.021469c  -6.21  -4.43c
iter:  23 20:37:23  -115.021449c  -6.41  -4.55c
iter:  24 20:37:51  -115.021451c  -7.21  -4.69c
iter:  25 20:38:20  -115.021457c  -7.35  -4.77c
iter:  26 20:38:49  -115.021450c  -6.80  -4.84c
iter:  27 20:39:17  -115.021457c  -7.66c -4.87c

Converged after 27 iterations.

Dipole moment: (4.090940, -2.415297, 13.392671) |e|*Ang

Energy contributions relative to reference atoms: (reference = -195466.052822)

Kinetic:       +159.522543
Potential:     -157.707754
External:        +0.000000
XC:            -117.943287
Entropy (-ST):   -0.183437
Local:           +1.198759
SIC:             +0.000000
--------------------------
Free energy:   -115.113176
Extrapolated:  -115.021457

Showing only first 2 kpts
 Kpt  Band  Eigenvalues  Occupancy
  0    62      9.98898    1.99981
  0    63     10.71898    1.75746
  0    64     11.39759    0.01623
  0    65     11.55294    0.00346

  1    62     10.02575    1.99973
  1    63     10.71863    1.75821
  1    64     11.31016    0.03848
  1    65     11.50705    0.00546


Fermi level: 10.91703

No gap
No difference between direct/indirect transitions

Forces in eV/Ang:
  0 Ti    0.82286   -0.67495    0.24057
  1 Ti   -0.04418    0.05811   -0.18214
  2 C    -0.50838    0.76592   -0.43357
  3 Ti   -0.62635   -0.20289   -1.10974
  4 Ti   -0.27633    0.16019    0.34660
  5 C     0.52199    0.35510   -0.37215
  6 Ti    0.44927   -0.07792   -1.05975
  7 Ti   -0.03283    0.09923   -0.77490
  8 C     0.96401    0.37699   -0.15451
  9 Ti   -0.23115    1.44508    1.02049
 10 Ti    0.73139   -0.10446    0.33786
 11 C     0.46792   -0.06123   -0.84397
 12 N     0.15395   -0.18840    0.28786
 13 O    -0.78990   -0.88207    1.54725
 14 O    -1.60578   -1.06898    1.15074

System changes: positions 

Initializing position-dependent things.

Density initialized from wave functions
                                  
                                  
                                  
                                  
                    N             
               O       O          
                                  
                                  
                                  
                                  
                                  
               Ti                 
                   C              
          Ti     Ti               
              C       C           
            Ti     Ti             
                C                 
             Ti      Ti           
               Ti                 
                                  
                                  
                                  
                                  

Positions:
   0 Ti    -0.016294    0.103988    3.399300    ( 0.0000,  0.0000,  0.0000)
   1 Ti     1.554925   -0.820617    1.154404    ( 0.0000,  0.0000,  0.0000)
   2 C      1.598159    0.908027    2.242729    ( 0.0000,  0.0000,  0.0000)
   3 Ti     1.691784    2.806899    3.570627    ( 0.0000,  0.0000,  0.0000)
   4 Ti     3.165705    1.915084    1.195800    ( 0.0000,  0.0000,  0.0000)
   5 C      3.036673    3.643541    2.293399    ( 0.0000,  0.0000,  0.0000)
   6 Ti     1.508170   -2.470912    3.579026    ( 0.0000,  0.0000,  0.0000)
   7 Ti     3.136189   -3.499861    1.259116    ( 0.0000,  0.0000,  0.0000)
   8 C      3.063388   -1.803675    2.387006    ( 0.0000,  0.0000,  0.0000)
   9 Ti     3.138827   -0.039728    3.364530    ( 0.0000,  0.0000,  0.0000)
  10 Ti     4.617612   -0.860390    1.128078    ( 0.0000,  0.0000,  0.0000)
  11 C      4.579609    0.978569    2.280927    ( 0.0000,  0.0000,  0.0000)
  12 N      3.133792    3.728182    9.526377    ( 0.0000,  0.0000,  0.0000)
  13 O      5.144821    1.314563    9.383269    ( 0.0000,  0.0000,  0.0000)
  14 O      2.082861    1.100380    9.379669    ( 0.0000,  0.0000,  0.0000)

Unit cell:
           periodic     x           y           z      points  spacing
  1. axis:    yes    3.081396   -5.337135    0.000000    40     0.1334
  2. axis:    yes    3.081396    5.337135    0.000000    40     0.1334
  3. axis:    yes    0.000000    0.000000    4.813770    30     0.1605

  Lengths:   6.162793   6.162793   4.813770
  Angles:   90.000000  90.000000 120.000000

Effective grid spacing dv^(1/3) = 0.1489

     iter     time        total  log10-change:
                         energy   eigst   dens
iter:   1 20:39:50  -115.439591   -0.85
iter:   2 20:40:18  -115.443317   -1.76  -2.17
iter:   3 20:40:44  -115.404127c  -1.97  -2.20
iter:   4 20:41:14  -115.395492c  -2.58  -2.41
iter:   5 20:41:42  -115.388534c  -2.76  -2.53
iter:   6 20:42:11  -115.390694c  -3.09  -2.76
iter:   7 20:42:39  -115.387496c  -3.72  -2.82
iter:   8 20:43:08  -115.386286c  -3.41  -2.95
iter:   9 20:43:37  -115.386601c  -4.31  -3.11
iter:  10 20:44:08  -115.386591c  -3.89  -3.20
iter:  11 20:44:37  -115.386622c  -4.56  -3.34
iter:  12 20:45:06  -115.386492c  -5.30  -3.37
iter:  13 20:45:35  -115.386465c  -4.47  -3.43
iter:  14 20:46:05  -115.386489c  -5.23  -3.66
iter:  15 20:46:34  -115.386500c  -5.73  -3.68
iter:  16 20:47:03  -115.386512c  -4.88  -3.73
iter:  17 20:47:33  -115.386508c  -5.87  -3.94
iter:  18 20:48:02  -115.386510c  -5.83  -4.03c
iter:  19 20:48:31  -115.386523c  -5.68  -4.06c
iter:  20 20:49:00  -115.386517c  -6.32  -4.13c
iter:  21 20:49:28  -115.386528c  -6.21  -4.34c
iter:  22 20:49:57  -115.386543c  -5.83  -4.46c
iter:  23 20:50:29  -115.386531c  -6.77  -4.58c
iter:  24 20:50:59  -115.386531c  -7.85c -4.85c

Converged after 24 iterations.

Dipole moment: (2.721005, -2.523660, 14.482523) |e|*Ang

Energy contributions relative to reference atoms: (reference = -195466.052822)

Kinetic:       +152.342844
Potential:     -151.939993
External:        +0.000000
XC:            -116.911637
Entropy (-ST):   -0.164070
Local:           +1.204289
SIC:             +0.000000
--------------------------
Free energy:   -115.468566
Extrapolated:  -115.386531

Showing only first 2 kpts
 Kpt  Band  Eigenvalues  Occupancy
  0    62     10.15013    1.99899
  0    63     10.65494    1.85442
  0    64     11.42689    0.01125
  0    65     11.52638    0.00417

  1    62     10.08839    1.99946
  1    63     10.65245    1.85775
  1    64     11.31654    0.03354
  1    65     11.53678    0.00376


Fermi level: 10.90940

No gap
No difference between direct/indirect transitions

Forces in eV/Ang:
  0 Ti    0.82377   -0.84620    0.22574
  1 Ti    0.03147   -0.02996   -0.27136
  2 C    -0.33331    0.54490    0.24603
  3 Ti   -0.64612   -0.30715   -1.27509
  4 Ti   -0.53544    0.04597   -0.00287
  5 C     0.50457    0.27188   -0.12565
  6 Ti    0.40990   -0.25185   -1.75080
  7 Ti    0.43316    0.59802    0.19311
  8 C     0.82770    0.49787   -0.66706
  9 Ti   -0.29758    1.42458    0.78688
 10 Ti    0.84482   -0.11655    0.08076
 11 C     0.78874   -0.51910   -0.39239
 12 N     0.03523    0.25790    0.66915
 13 O    -1.21613   -0.86199    1.32368
 14 O    -1.67868   -0.71528    0.95720

System changes: positions 

Initializing position-dependent things.

Density initialized from wave functions
                                 
                                 
                                 
                                 
                   N             
               O      O          
                                 
                                 
                                 
                                 
                                 
                                 
               Ti  C             
         Ti      Ti              
              C      C           
           Ti     Ti             
                C                
             Ti     Ti           
               Ti                
                                 
                                 
                                 
                                 

Positions:
   0 Ti     0.032328    0.103021    3.394416    ( 0.0000,  0.0000,  0.0000)
   1 Ti     1.573103   -0.810044    1.153279    ( 0.0000,  0.0000,  0.0000)
   2 C      1.585653    0.961152    2.211723    ( 0.0000,  0.0000,  0.0000)
   3 Ti     1.690060    2.780287    3.538393    ( 0.0000,  0.0000,  0.0000)
   4 Ti     3.161964    1.934083    1.198508    ( 0.0000,  0.0000,  0.0000)
   5 C      3.070751    3.668714    2.276920    ( 0.0000,  0.0000,  0.0000)
   6 Ti     1.532153   -2.490536    3.611938    ( 0.0000,  0.0000,  0.0000)
   7 Ti     3.111649   -3.490448    1.190935    ( 0.0000,  0.0000,  0.0000)
   8 C      3.115713   -1.789423    2.424046    ( 0.0000,  0.0000,  0.0000)
   9 Ti     3.142336    0.025275    3.399148    ( 0.0000,  0.0000,  0.0000)
  10 Ti     4.636325   -0.857077    1.154962    ( 0.0000,  0.0000,  0.0000)
  11 C      4.594505    1.005310    2.239394    ( 0.0000,  0.0000,  0.0000)
  12 N      3.145249    3.689547    9.514181    ( 0.0000,  0.0000,  0.0000)
  13 O      5.091713    1.260787    9.390181    ( 0.0000,  0.0000,  0.0000)
  14 O      1.952269    1.012762    9.446352    ( 0.0000,  0.0000,  0.0000)

Unit cell:
           periodic     x           y           z      points  spacing
  1. axis:    yes    3.081396   -5.337135    0.000000    40     0.1334
  2. axis:    yes    3.081396    5.337135    0.000000    40     0.1334
  3. axis:    yes    0.000000    0.000000    4.813770    30     0.1605

  Lengths:   6.162793   6.162793   4.813770
  Angles:   90.000000  90.000000 120.000000

Effective grid spacing dv^(1/3) = 0.1489

     iter     time        total  log10-change:
                         energy   eigst   dens
iter:   1 20:51:35  -116.035515   -0.62
iter:   2 20:52:04  -116.006222   -1.54  -2.00
iter:   3 20:52:33  -115.922576   -1.63  -2.06
iter:   4 20:53:01  -115.894825   -2.43  -2.24
iter:   5 20:53:30  -115.879702c  -2.39  -2.37
iter:   6 20:53:59  -115.887718c  -2.56  -2.60
iter:   7 20:54:28  -115.874208c  -3.07  -2.62
iter:   8 20:54:57  -115.874147c  -3.89  -2.87
iter:   9 20:55:27  -115.873678c  -3.57  -2.92
iter:  10 20:55:56  -115.874508c  -3.25  -3.10
iter:  11 20:56:25  -115.873953c  -4.39  -3.19
iter:  12 20:56:54  -115.873643c  -4.26  -3.27
iter:  13 20:57:23  -115.873646c  -4.86  -3.42
iter:  14 20:57:52  -115.873626c  -4.80  -3.57
iter:  15 20:58:22  -115.873629c  -5.42  -3.72
iter:  16 20:58:52  -115.873650c  -5.19  -3.76
iter:  17 20:59:21  -115.873664c  -5.23  -3.93
iter:  18 20:59:50  -115.873657c  -6.20  -4.06c
iter:  19 21:00:20  -115.873651c  -6.13  -4.17c
iter:  20 21:00:49  -115.873644c  -6.19  -4.29c
iter:  21 21:01:18  -115.873645c  -6.76  -4.60c
iter:  22 21:01:47  -115.873649c  -7.32  -4.64c
iter:  23 21:02:16  -115.873650c  -7.40c -4.77c

Converged after 23 iterations.

Dipole moment: (0.792556, -2.715841, 14.787127) |e|*Ang

Energy contributions relative to reference atoms: (reference = -195466.052822)

Kinetic:       +143.363954
Potential:     -144.716512
[...]
                         energy   eigst   dens
iter:   1 00:26:31  -117.406093   -4.57
iter:   2 00:26:58  -117.406080   -5.50  -3.82
iter:   3 00:27:26  -117.406077c  -5.52  -3.92
iter:   4 00:27:53  -117.406074c  -6.36  -4.15c
iter:   5 00:28:20  -117.406084c  -5.67  -4.24c
iter:   6 00:28:47  -117.406076c  -6.50  -4.48c
iter:   7 00:29:15  -117.406067c  -6.72  -4.46c
iter:   8 00:29:42  -117.406073c  -7.50c -4.75c

Converged after 8 iterations.

Dipole moment: (-2.376941, -8.337325, 10.933922) |e|*Ang

Energy contributions relative to reference atoms: (reference = -195466.052822)

Kinetic:       +120.164904
Potential:     -126.233880
External:        +0.000000
XC:            -112.506124
Entropy (-ST):   -0.147261
Local:           +1.242658
SIC:             +0.000000
--------------------------
Free energy:   -117.479703
Extrapolated:  -117.406073

Showing only first 2 kpts
 Kpt  Band  Eigenvalues  Occupancy
  0    62     10.08743    1.99939
  0    63     10.80387    1.43184
  0    64     11.29582    0.03614
  0    65     11.48086    0.00577

  1    62     10.10816    1.99924
  1    63     10.37900    1.98873
  1    64     11.58985    0.00194
  1    65     11.64011    0.00118


Fermi level: 10.89630

No gap
No difference between direct/indirect transitions

Forces in eV/Ang:
  0 Ti    0.00571    0.00482   -0.00300
  1 Ti    0.00188   -0.00426   -0.00249
  2 C    -0.00105    0.00595    0.00833
  3 Ti    0.00570    0.00302   -0.00272
  4 Ti   -0.00608    0.00059   -0.00604
  5 C     0.00212    0.00138    0.00475
  6 Ti   -0.00519   -0.00523    0.00395
  7 Ti    0.00471    0.00061    0.00320
  8 C     0.00075   -0.00795    0.00529
  9 Ti   -0.00530   -0.00287   -0.00524
 10 Ti    0.00242    0.00055    0.00537
 11 C    -0.00509    0.00272    0.00923
 12 N     0.00841    0.00179   -0.00558
 13 O    -0.01816    0.00653   -0.01065
 14 O     0.00714   -0.00449   -0.00545

System changes: positions 

Initializing position-dependent things.

Density initialized from wave functions
                                
                                
                                
                                
                   N            
              O      O          
                                
                                
                                
                                
                                
                                
               Ti  C            
         Ti      Ti             
              C      C          
           Ti     Ti            
                C               
             Ti     Ti          
               Ti               
                                
                                
                                
                                

Positions:
   0 Ti     0.091650    0.089826    3.456328    ( 0.0000,  0.0000,  0.0000)
   1 Ti     1.613182   -0.779605    1.127793    ( 0.0000,  0.0000,  0.0000)
   2 C      1.632752    1.000056    2.298786    ( 0.0000,  0.0000,  0.0000)
   3 Ti     1.651135    2.780838    3.469697    ( 0.0000,  0.0000,  0.0000)
   4 Ti     3.173448    1.911492    1.141257    ( 0.0000,  0.0000,  0.0000)
   5 C      3.172904    3.668912    2.298990    ( 0.0000,  0.0000,  0.0000)
   6 Ti     1.613942   -2.555768    3.469000    ( 0.0000,  0.0000,  0.0000)
   7 Ti     3.173182   -3.461365    1.167154    ( 0.0000,  0.0000,  0.0000)
   8 C      3.173100   -1.667459    2.298259    ( 0.0000,  0.0000,  0.0000)
   9 Ti     3.173630    0.125917    3.430186    ( 0.0000,  0.0000,  0.0000)
  10 Ti     4.732941   -0.780250    1.127287    ( 0.0000,  0.0000,  0.0000)
  11 C      4.713835    1.000209    2.298706    ( 0.0000,  0.0000,  0.0000)
  12 N      3.172588    3.668694    9.519653    ( 0.0000,  0.0000,  0.0000)
  13 O      4.716288    1.000786    9.519999    ( 0.0000,  0.0000,  0.0000)
  14 O      1.631424    1.001143    9.519777    ( 0.0000,  0.0000,  0.0000)

Unit cell:
           periodic     x           y           z      points  spacing
  1. axis:    yes    3.081396   -5.337135    0.000000    40     0.1334
  2. axis:    yes    3.081396    5.337135    0.000000    40     0.1334
  3. axis:    yes    0.000000    0.000000    4.813770    30     0.1605

  Lengths:   6.162793   6.162793   4.813770
  Angles:   90.000000  90.000000 120.000000

Effective grid spacing dv^(1/3) = 0.1489

     iter     time        total  log10-change:
                         energy   eigst   dens
iter:   1 00:30:16  -117.406137   -4.62
iter:   2 00:30:43  -117.406122   -5.57  -3.82
iter:   3 00:31:10  -117.406121c  -5.50  -3.92
iter:   4 00:31:37  -117.406117c  -6.37  -4.17c
iter:   5 00:32:04  -117.406130c  -5.65  -4.27c
iter:   6 00:32:31  -117.406124c  -6.45  -4.49c
iter:   7 00:32:58  -117.406111c  -6.62  -4.45c
iter:   8 00:33:25  -117.406117c  -7.63c -4.80c

Converged after 8 iterations.

Dipole moment: (-2.379255, -8.352855, 10.926277) |e|*Ang

Energy contributions relative to reference atoms: (reference = -195466.052822)

Kinetic:       +120.171568
Potential:     -126.239029
External:        +0.000000
XC:            -112.507647
Entropy (-ST):   -0.147239
Local:           +1.242611
SIC:             +0.000000
--------------------------
Free energy:   -117.479737
Extrapolated:  -117.406117

Showing only first 2 kpts
 Kpt  Band  Eigenvalues  Occupancy
  0    62     10.08797    1.99938
  0    63     10.80361    1.43286
  0    64     11.29580    0.03615
  0    65     11.48080    0.00577

  1    62     10.10835    1.99924
  1    63     10.37878    1.98875
  1    64     11.58996    0.00194
  1    65     11.64010    0.00118


Fermi level: 10.89629

No gap
No difference between direct/indirect transitions

Forces in eV/Ang:
  0 Ti    0.00185    0.00413   -0.00115
  1 Ti    0.00102   -0.00532    0.00034
  2 C    -0.00051    0.00747    0.00364
  3 Ti    0.00332    0.00054   -0.00053
  4 Ti   -0.00322   -0.00551   -0.00293
  5 C     0.00484    0.00153   -0.00253
  6 Ti   -0.00594   -0.00544    0.00893
  7 Ti    0.00175   -0.00494    0.00280
  8 C    -0.00038   -0.00083    0.00258
  9 Ti   -0.00432   -0.00462   -0.00294
 10 Ti    0.00107    0.00321    0.00624
 11 C    -0.00023    0.00688    0.00411
 12 N     0.00662    0.00297   -0.00408
 13 O    -0.01198    0.00445   -0.01017
 14 O     0.00430   -0.00179   -0.00595

System changes: positions 

Initializing position-dependent things.

Density initialized from wave functions
                                
                                
                                
                                
                   N            
              O      O          
                                
                                
                                
                                
                                
                                
               Ti  C            
         Ti      Ti             
              C      C          
           Ti     Ti            
                C               
             Ti     Ti          
               Ti               
                                
                                
                                
                                

Positions:
   0 Ti     0.091758    0.090040    3.456328    ( 0.0000,  0.0000,  0.0000)
   1 Ti     1.613087   -0.779630    1.127763    ( 0.0000,  0.0000,  0.0000)
   2 C      1.632693    1.000279    2.298916    ( 0.0000,  0.0000,  0.0000)
   3 Ti     1.651249    2.781066    3.469757    ( 0.0000,  0.0000,  0.0000)
   4 Ti     3.173272    1.911638    1.141130    ( 0.0000,  0.0000,  0.0000)
   5 C      3.172856    3.669032    2.299162    ( 0.0000,  0.0000,  0.0000)
   6 Ti     1.613986   -2.555791    3.468961    ( 0.0000,  0.0000,  0.0000)
   7 Ti     3.173274   -3.461414    1.167057    ( 0.0000,  0.0000,  0.0000)
   8 C      3.173190   -1.667754    2.298431    ( 0.0000,  0.0000,  0.0000)
   9 Ti     3.173578    0.125752    3.429933    ( 0.0000,  0.0000,  0.0000)
  10 Ti     4.733121   -0.780217    1.127415    ( 0.0000,  0.0000,  0.0000)
  11 C      4.713665    1.000311    2.298800    ( 0.0000,  0.0000,  0.0000)
  12 N      3.172932    3.668687    9.519502    ( 0.0000,  0.0000,  0.0000)
  13 O      4.715287    1.000802    9.519886    ( 0.0000,  0.0000,  0.0000)
  14 O      1.631964    1.000731    9.519773    ( 0.0000,  0.0000,  0.0000)

Unit cell:
           periodic     x           y           z      points  spacing
  1. axis:    yes    3.081396   -5.337135    0.000000    40     0.1334
  2. axis:    yes    3.081396    5.337135    0.000000    40     0.1334
  3. axis:    yes    0.000000    0.000000    4.813770    30     0.1605

  Lengths:   6.162793   6.162793   4.813770
  Angles:   90.000000  90.000000 120.000000

Effective grid spacing dv^(1/3) = 0.1489

     iter     time        total  log10-change:
                         energy   eigst   dens
iter:   1 00:33:58  -117.406153   -4.87
iter:   2 00:34:25  -117.406140   -5.86  -3.90
iter:   3 00:34:52  -117.406142c  -5.66  -4.00c
iter:   4 00:35:19  -117.406139c  -6.65  -4.32c
iter:   5 00:35:46  -117.406151c  -5.84  -4.39c
iter:   6 00:36:14  -117.406147c  -6.55  -4.62c
iter:   7 00:36:41  -117.406136c  -6.75  -4.53c
iter:   8 00:37:08  -117.406141c  -7.84c -4.95c

Converged after 8 iterations.

Dipole moment: (-2.382015, -8.365036, 10.933379) |e|*Ang

Energy contributions relative to reference atoms: (reference = -195466.052822)

Kinetic:       +120.177700
Potential:     -126.243958
External:        +0.000000
XC:            -112.508912
Entropy (-ST):   -0.147228
Local:           +1.242642
SIC:             +0.000000
--------------------------
Free energy:   -117.479755
Extrapolated:  -117.406141

Showing only first 2 kpts
 Kpt  Band  Eigenvalues  Occupancy
  0    62     10.08809    1.99938
  0    63     10.80358    1.43307
  0    64     11.29579    0.03616
  0    65     11.48078    0.00577

  1    62     10.10833    1.99924
  1    63     10.37873    1.98876
  1    64     11.58993    0.00194
  1    65     11.64003    0.00118


Fermi level: 10.89631

No gap
No difference between direct/indirect transitions

Forces in eV/Ang:
  0 Ti   -0.00054    0.00168    0.00024
  1 Ti    0.00172   -0.00475    0.00090
  2 C    -0.00077    0.00619    0.00006
  3 Ti    0.00206   -0.00119   -0.00055
  4 Ti   -0.00120   -0.00706   -0.00008
  5 C     0.00517    0.00237   -0.00602
  6 Ti   -0.00633   -0.00531    0.00961
  7 Ti   -0.00049   -0.00525    0.00423
  8 C    -0.00027    0.00233   -0.00096
  9 Ti   -0.00372   -0.00324    0.00104
 10 Ti   -0.00054    0.00318    0.00461
 11 C     0.00353    0.00613   -0.00025
 12 N     0.00461    0.00482   -0.00190
 13 O    -0.00717    0.00212   -0.00778
 14 O     0.00235   -0.00070   -0.00532

System changes: positions 

Initializing position-dependent things.

Density initialized from wave functions
                                
                                
                                
                                
                   N            
              O      O          
                                
                                
                                
                                
                                
                                
               Ti  C            
         Ti      Ti             
              C      C          
           Ti     Ti            
                C               
             Ti     Ti          
               Ti               
                                
                                
                                
                                

Positions:
   0 Ti     0.091888    0.090184    3.456274    ( 0.0000,  0.0000,  0.0000)
   1 Ti     1.613119   -0.779780    1.127716    ( 0.0000,  0.0000,  0.0000)
   2 C      1.632701    1.000524    2.298984    ( 0.0000,  0.0000,  0.0000)
   3 Ti     1.651449    2.781223    3.469714    ( 0.0000,  0.0000,  0.0000)
   4 Ti     3.173130    1.911523    1.140989    ( 0.0000,  0.0000,  0.0000)
   5 C      3.173007    3.669114    2.299091    ( 0.0000,  0.0000,  0.0000)
   6 Ti     1.613870   -2.555825    3.469111    ( 0.0000,  0.0000,  0.0000)
   7 Ti     3.173296   -3.461519    1.167125    ( 0.0000,  0.0000,  0.0000)
   8 C      3.173274   -1.667961    2.298680    ( 0.0000,  0.0000,  0.0000)
   9 Ti     3.173443    0.125565    3.429861    ( 0.0000,  0.0000,  0.0000)
  10 Ti     4.733229   -0.780099    1.127662    ( 0.0000,  0.0000,  0.0000)
  11 C      4.713559    1.000522    2.298903    ( 0.0000,  0.0000,  0.0000)
  12 N      3.173199    3.668692    9.519298    ( 0.0000,  0.0000,  0.0000)
  13 O      4.714574    1.000776    9.519694    ( 0.0000,  0.0000,  0.0000)
  14 O      1.632091    1.000685    9.519641    ( 0.0000,  0.0000,  0.0000)

Unit cell:
           periodic     x           y           z      points  spacing
  1. axis:    yes    3.081396   -5.337135    0.000000    40     0.1334
  2. axis:    yes    3.081396    5.337135    0.000000    40     0.1334
  3. axis:    yes    0.000000    0.000000    4.813770    30     0.1605

  Lengths:   6.162793   6.162793   4.813770
  Angles:   90.000000  90.000000 120.000000

Effective grid spacing dv^(1/3) = 0.1489

     iter     time        total  log10-change:
                         energy   eigst   dens
iter:   1 00:37:42  -117.406158   -5.08
iter:   2 00:38:09  -117.406152   -6.07  -4.01c
iter:   3 00:38:36  -117.406157c  -5.87  -4.13c
iter:   4 00:39:03  -117.406155c  -6.96  -4.47c
iter:   5 00:39:30  -117.406164c  -6.20  -4.52c
iter:   6 00:39:58  -117.406162c  -6.70  -4.78c
iter:   7 00:40:25  -117.406153c  -6.99  -4.63c
iter:   8 00:40:53  -117.406157c  -8.04c -5.10c

Converged after 8 iterations.

Dipole moment: (-2.384880, -8.365685, 10.949276) |e|*Ang

Energy contributions relative to reference atoms: (reference = -195466.052822)

Kinetic:       +120.183978
Potential:     -126.248950
External:        +0.000000
XC:            -112.510258
Entropy (-ST):   -0.147224
Local:           +1.242685
SIC:             +0.000000
--------------------------
Free energy:   -117.479769
Extrapolated:  -117.406157

Showing only first 2 kpts
 Kpt  Band  Eigenvalues  Occupancy
  0    62     10.08795    1.99938
  0    63     10.80367    1.43284
  0    64     11.29580    0.03616
  0    65     11.48076    0.00578

  1    62     10.10819    1.99924
  1    63     10.37879    1.98876
  1    64     11.58984    0.00194
  1    65     11.63993    0.00118


Fermi level: 10.89634

No gap
No difference between direct/indirect transitions

Forces in eV/Ang:
  0 Ti   -0.00258   -0.00072    0.00197
  1 Ti    0.00236   -0.00238    0.00118
  2 C    -0.00081    0.00228   -0.00357
  3 Ti    0.00097   -0.00101    0.00033
  4 Ti    0.00062   -0.00506    0.00226
  5 C     0.00353    0.00201   -0.00668
  6 Ti   -0.00485   -0.00373    0.00715
  7 Ti   -0.00165   -0.00320    0.00376
  8 C    -0.00058    0.00348   -0.00370
  9 Ti   -0.00219   -0.00110    0.00332
 10 Ti   -0.00153    0.00212    0.00075
 11 C     0.00509    0.00267   -0.00366
 12 N     0.00160    0.00582    0.00093
 13 O    -0.00281   -0.00006   -0.00406
 14 O     0.00140   -0.00069   -0.00279

Writing to /home/intvengiel/workshop-physics/system/calculator/NO2-PBEU-1-0-calculator.gpw (mode='all')

Timing:                                      incl.     excl.
-------------------------------------------------------------------
Density initialized from wave functions:    61.024    61.024   0.3% |
 Symmetrize density:                         0.001     0.001   0.0% |
Forces:                                    137.456   137.456   0.6% |
Hamiltonian:                                12.976     0.039   0.0% |
 Atomic:                                     8.258     0.205   0.0% |
  XC Correction:                             8.052     8.052   0.0% |
 Calculate atomic Hamiltonians:              1.851     1.851   0.0% |
 Communicate:                                0.000     0.000   0.0% |
 Initialize Hamiltonian:                     0.000     0.000   0.0% |
 Poisson:                                    0.045     0.045   0.0% |
 XC 3D grid:                                 2.783     2.783   0.0% |
LCAO initialization:                       185.867     0.119   0.0% |
 LCAO eigensolver:                           3.640     0.004   0.0% |
  Calculate projections:                     0.024     0.024   0.0% |
  DenseAtomicCorrection:                     0.081     0.081   0.0% |
  Distribute overlap matrix:                 0.007     0.007   0.0% |
  Orbital Layouts:                           0.429     0.429   0.0% |
  Potential matrix:                          2.809     2.809   0.0% |
  Sum over cells:                            0.286     0.286   0.0% |
 LCAO to grid:                             179.721   179.721   0.8% |
 Set positions (LCAO WFS):                   2.388     0.267   0.0% |
  Basic WFS set positions:                   0.000     0.000   0.0% |
  Basis functions set positions:             0.000     0.000   0.0% |
  P tci:                                     1.524     1.524   0.0% |
  ST tci:                                    0.585     0.585   0.0% |
  mktci:                                     0.011     0.011   0.0% |
PWDescriptor:                                0.249     0.249   0.0% |
Redistribute:                                0.730     0.730   0.0% |
SCF-cycle:                               23339.377     4.578   0.0% |
 Davidson:                               21815.746  3546.495  14.9% |-----|
  Apply H:                                3507.477  3387.511  14.2% |-----|
   HMM T:                                  119.966   119.966   0.5% |
  Subspace diag:                          4312.568     6.970   0.0% |
   calc_h_matrix:                         3714.037   217.195   0.9% |
    Apply H:                              3496.842  3371.512  14.2% |-----|
     HMM T:                                125.330   125.330   0.5% |
   diagonalize:                            186.823   186.823   0.8% |
   rotate_psi:                             404.738   404.738   1.7% ||
  calc. matrices:                         8687.837  1682.716   7.1% |--|
   Apply H:                               7005.122  6760.841  28.4% |----------|
    HMM T:                                 244.281   244.281   1.0% |
  diagonalize:                             998.341   998.341   4.2% |-|
  rotate_psi:                              763.028   763.028   3.2% ||
 Density:                                 1211.963     0.011   0.0% |
  Atomic density matrices:                  10.707    10.707   0.0% |
  Mix:                                      48.092    48.092   0.2% |
  Multipole moments:                         0.109     0.109   0.0% |
  Pseudo density:                         1153.044  1153.033   4.8% |-|
   Symmetrize density:                       0.011     0.011   0.0% |
 Hamiltonian:                              240.004     0.742   0.0% |
  Atomic:                                  155.172     3.797   0.0% |
   XC Correction:                          151.374   151.374   0.6% |
  Calculate atomic Hamiltonians:            33.692    33.692   0.1% |
  Communicate:                               0.005     0.005   0.0% |
  Poisson:                                   0.830     0.830   0.0% |
  XC 3D grid:                               49.564    49.564   0.2% |
 Orthonormalize:                            67.085     0.334   0.0% |
  calc_s_matrix:                            16.533    16.533   0.1% |
  inverse-cholesky:                          3.102     3.102   0.0% |
  projections:                              34.486    34.486   0.1% |
  rotate_psi_s:                             12.629    12.629   0.1% |
Set symmetry:                                0.002     0.002   0.0% |
Other:                                      74.160    74.160   0.3% |
-------------------------------------------------------------------
Total:                                             23811.840 100.0%

Memory usage: 1.30 GiB
Date: Fri Jan 31 00:40:58 2025
